TITLE = "Visualization of the volumetric solution"
VARIABLES = "x""y""Conservative_1""Conservative_2""Conservative_3""Conservative_4""Conservative_5""Conservative_6""Conservative_7""Conservative_8""Conservative_9""Pressure""Temperature""Mach""<greek>m</greek>"
ZONE NODES= 4680, ELEMENTS= 4522, DATAPACKING=POINT, ZONETYPE=FEQUADRILATERAL
0.000000e+00	0.000000e+00	7.813358e-01	3.210841e+01	3.718044e-04	4.727708e+04	0.000000e+00	0.000000e+00	5.246850e-33	0.000000e+00	7.813358e-01	1.013333e+05	4.991306e+02	9.765822e-02	3.045156e-05	
0.000000e+00	3.000000e-02	7.813357e-01	3.211021e+01	-6.592382e-06	4.727710e+04	0.000000e+00	0.000000e+00	3.906681e-01	1.837880e-155	3.906676e-01	1.013333e+05	4.991305e+02	9.766372e-02	3.045156e-05	
0.000000e+00	6.000000e-02	7.813358e-01	3.210835e+01	-3.703630e-04	4.727708e+04	0.000000e+00	0.000000e+00	7.813358e-01	0.000000e+00	5.234448e-33	1.013334e+05	4.991306e+02	9.765803e-02	3.045156e-05	
1.000000e+00	6.000000e-02	7.812887e-01	3.184425e+01	-2.586220e-04	4.725737e+04	0.000000e+00	0.000000e+00	7.812886e-01	5.226247e-40	5.853468e-08	1.013250e+05	4.991196e+02	9.686162e-02	3.045108e-05	
1.000000e+00	0.000000e+00	7.812886e-01	3.184466e+01	3.288720e-04	4.725743e+04	0.000000e+00	0.000000e+00	5.863520e-08	5.604947e-40	7.812885e-01	1.013250e+05	4.991197e+02	9.686287e-02	3.045108e-05	
0.000000e+00	1.578947e-03	7.813359e-01	3.211009e+01	3.304382e-04	4.727711e+04	0.000000e+00	0.000000e+00	1.368108e-31	0.000000e+00	7.813359e-01	1.013333e+05	4.991305e+02	9.766332e-02	3.045156e-05	
0.000000e+00	3.157895e-03	7.813358e-01	3.211007e+01	2.693168e-04	4.727711e+04	0.000000e+00	0.000000e+00	6.931907e-30	0.000000e+00	7.813358e-01	1.013333e+05	4.991305e+02	9.766328e-02	3.045156e-05	
0.000000e+00	4.736842e-03	7.813358e-01	3.211007e+01	2.086234e-04	4.727711e+04	0.000000e+00	0.000000e+00	3.452955e-28	0.000000e+00	7.813358e-01	1.013333e+05	4.991305e+02	9.766328e-02	3.045156e-05	
0.000000e+00	6.315789e-03	7.813358e-01	3.211008e+01	1.585918e-04	4.727711e+04	0.000000e+00	0.000000e+00	1.706054e-26	0.000000e+00	7.813358e-01	1.013333e+05	4.991305e+02	9.766331e-02	3.045156e-05	
0.000000e+00	7.894737e-03	7.813358e-01	3.211009e+01	1.178186e-04	4.727711e+04	0.000000e+00	0.000000e+00	8.396076e-25	0.000000e+00	7.813358e-01	1.013333e+05	4.991305e+02	9.766334e-02	3.045156e-05	
0.000000e+00	9.473684e-03	7.813358e-01	3.211011e+01	8.617525e-05	4.727710e+04	0.000000e+00	0.000000e+00	4.123868e-23	0.000000e+00	7.813358e-01	1.013333e+05	4.991305e+02	9.766339e-02	3.045156e-05	
0.000000e+00	1.105263e-02	7.813357e-01	3.211012e+01	6.184837e-05	4.727710e+04	0.000000e+00	0.000000e+00	2.023494e-21	0.000000e+00	7.813357e-01	1.013333e+05	4.991305e+02	9.766343e-02	3.045156e-05	
0.000000e+00	1.263158e-02	7.813357e-01	3.211014e+01	4.333029e-05	4.727710e+04	0.000000e+00	0.000000e+00	9.923887e-20	0.000000e+00	7.813357e-01	1.013333e+05	4.991305e+02	9.766348e-02	3.045156e-05	
0.000000e+00	1.421053e-02	7.813357e-01	3.211015e+01	2.933042e-05	4.727710e+04	0.000000e+00	0.000000e+00	4.865807e-18	0.000000e+00	7.813357e-01	1.013333e+05	4.991305e+02	9.766352e-02	3.045156e-05	
0.000000e+00	1.578947e-02	7.813357e-01	3.211016e+01	1.883808e-05	4.727710e+04	0.000000e+00	0.000000e+00	2.385503e-16	0.000000e+00	7.813357e-01	1.013333e+05	4.991305e+02	9.766356e-02	3.045156e-05	
0.000000e+00	1.736842e-02	7.813357e-01	3.211017e+01	1.106626e-05	4.727710e+04	0.000000e+00	0.000000e+00	1.169468e-14	0.000000e+00	7.813357e-01	1.013333e+05	4.991305e+02	9.766360e-02	3.045156e-05	
0.000000e+00	1.894737e-02	7.813357e-01	3.211019e+01	5.393822e-06	4.727710e+04	0.000000e+00	0.000000e+00	5.733213e-13	0.000000e+00	7.813357e-01	1.013333e+05	4.991305e+02	9.766363e-02	3.045156e-05	
0.000000e+00	2.052632e-02	7.813357e-01	3.211019e+01	1.328218e-06	4.727710e+04	0.000000e+00	0.000000e+00	2.810726e-11	0.000000e+00	7.813357e-01	1.013333e+05	4.991305e+02	9.766366e-02	3.045156e-05	
0.000000e+00	2.210526e-02	7.813357e-01	3.211020e+01	-1.522885e-06	4.727710e+04	0.000000e+00	0.000000e+00	1.378016e-09	0.000000e+00	7.813357e-01	1.013333e+05	4.991305e+02	9.766368e-02	3.045156e-05	
0.000000e+00	2.368421e-02	7.813357e-01	3.211021e+01	-3.471823e-06	4.727710e+04	0.000000e+00	0.000000e+00	6.756301e-08	0.000000e+00	7.813356e-01	1.013333e+05	4.991305e+02	9.766370e-02	3.045156e-05	
0.000000e+00	2.526316e-02	7.813357e-01	3.211021e+01	-4.767706e-06	4.727710e+04	0.000000e+00	0.000000e+00	3.312744e-06	0.000000e+00	7.813324e-01	1.013333e+05	4.991305e+02	9.766371e-02	3.045156e-05	
0.000000e+00	2.684211e-02	7.813357e-01	3.211021e+01	-5.611655e-06	4.727710e+04	0.000000e+00	0.000000e+00	1.624406e-04	0.000000e+00	7.811733e-01	1.013333e+05	4.991305e+02	9.766372e-02	3.045156e-05	
0.000000e+00	2.842105e-02	7.813357e-01	3.211021e+01	-6.170880e-06	4.727710e+04	0.000000e+00	0.000000e+00	7.965872e-03	0.000000e+00	7.733698e-01	1.013333e+05	4.991305e+02	9.766372e-02	3.045156e-05	
0.000000e+00	3.157895e-02	7.813357e-01	3.211021e+01	-7.009487e-06	4.727710e+04	0.000000e+00	0.000000e+00	7.733701e-01	0.000000e+00	7.965621e-03	1.013333e+05	4.991305e+02	9.766371e-02	3.045156e-05	
0.000000e+00	3.315789e-02	7.813357e-01	3.211021e+01	-7.554718e-06	4.727710e+04	0.000000e+00	0.000000e+00	7.811733e-01	0.000000e+00	1.624309e-04	1.013333e+05	4.991305e+02	9.766370e-02	3.045156e-05	
0.000000e+00	3.473684e-02	7.813357e-01	3.211020e+01	-8.372504e-06	4.727710e+04	0.000000e+00	0.000000e+00	7.813324e-01	0.000000e+00	3.312466e-06	1.013333e+05	4.991305e+02	9.766368e-02	3.045156e-05	
0.000000e+00	3.631579e-02	7.813357e-01	3.211020e+01	-9.625342e-06	4.727710e+04	0.000000e+00	0.000000e+00	7.813356e-01	0.000000e+00	6.755621e-08	1.013333e+05	4.991305e+02	9.766366e-02	3.045156e-05	
0.000000e+00	3.789474e-02	7.813357e-01	3.211019e+01	-1.150699e-05	4.727710e+04	0.000000e+00	0.000000e+00	7.813357e-01	0.000000e+00	1.377865e-09	1.013333e+05	4.991305e+02	9.766364e-02	3.045156e-05	
0.000000e+00	3.947368e-02	7.813357e-01	3.211018e+01	-1.425593e-05	4.727710e+04	0.000000e+00	0.000000e+00	7.813357e-01	0.000000e+00	2.810421e-11	1.013333e+05	4.991305e+02	9.766361e-02	3.045156e-05	
0.000000e+00	4.105263e-02	7.813357e-01	3.211017e+01	-1.817085e-05	4.727710e+04	0.000000e+00	0.000000e+00	7.813357e-01	0.000000e+00	5.732638e-13	1.013333e+05	4.991305e+02	9.766357e-02	3.045156e-05	
0.000000e+00	4.263158e-02	7.813357e-01	3.211015e+01	-2.362800e-05	4.727710e+04	0.000000e+00	0.000000e+00	7.813357e-01	0.000000e+00	1.169362e-14	1.013333e+05	4.991305e+02	9.766353e-02	3.045156e-05	
0.000000e+00	4.421053e-02	7.813357e-01	3.211014e+01	-3.110119e-05	4.727710e+04	0.000000e+00	0.000000e+00	7.813357e-01	0.000000e+00	2.385305e-16	1.013333e+05	4.991305e+02	9.766349e-02	3.045156e-05	
0.000000e+00	4.578947e-02	7.813357e-01	3.211012e+01	-4.118996e-05	4.727710e+04	0.000000e+00	0.000000e+00	7.813357e-01	0.000000e+00	4.865421e-18	1.013333e+05	4.991305e+02	9.766344e-02	3.045156e-05	
0.000000e+00	4.736842e-02	7.813357e-01	3.211011e+01	-5.465909e-05	4.727710e+04	0.000000e+00	0.000000e+00	7.813357e-01	0.000000e+00	9.923062e-20	1.013333e+05	4.991305e+02	9.766339e-02	3.045156e-05	
0.000000e+00	4.894737e-02	7.813357e-01	3.211009e+01	-7.250450e-05	4.727710e+04	0.000000e+00	0.000000e+00	7.813357e-01	0.000000e+00	2.023297e-21	1.013333e+05	4.991305e+02	9.766334e-02	3.045156e-05	
0.000000e+00	5.052632e-02	7.813358e-01	3.211007e+01	-9.603283e-05	4.727711e+04	0.000000e+00	0.000000e+00	7.813358e-01	0.000000e+00	4.123332e-23	1.013333e+05	4.991305e+02	9.766329e-02	3.045156e-05	
0.000000e+00	5.210526e-02	7.813358e-01	3.211006e+01	-1.268170e-04	4.727711e+04	0.000000e+00	0.000000e+00	7.813358e-01	0.000000e+00	8.394447e-25	1.013333e+05	4.991305e+02	9.766324e-02	3.045156e-05	
0.000000e+00	5.368421e-02	7.813358e-01	3.211004e+01	-1.668513e-04	4.727711e+04	0.000000e+00	0.000000e+00	7.813358e-01	0.000000e+00	1.705510e-26	1.013333e+05	4.991305e+02	9.766319e-02	3.045156e-05	
0.000000e+00	5.526316e-02	7.813358e-01	3.211004e+01	-2.165133e-04	4.727711e+04	0.000000e+00	0.000000e+00	7.813358e-01	0.000000e+00	3.450983e-28	1.013333e+05	4.991305e+02	9.766316e-02	3.045156e-05	
0.000000e+00	5.684211e-02	7.813358e-01	3.211003e+01	-2.772439e-04	4.727711e+04	0.000000e+00	0.000000e+00	7.813358e-01	0.000000e+00	6.924263e-30	1.013333e+05	4.991305e+02	9.766314e-02	3.045156e-05	
0.000000e+00	5.842105e-02	7.813359e-01	3.211004e+01	-3.395379e-04	4.727711e+04	0.000000e+00	0.000000e+00	7.813359e-01	0.000000e+00	1.365029e-31	1.013333e+05	4.991305e+02	9.766317e-02	3.045156e-05	
8.403361e-03	6.000000e-02	7.813300e-01	3.210854e+01	-3.129420e-04	4.727643e+04	0.000000e+00	0.000000e+00	7.813300e-01	5.503036e-133	3.611956e-27	1.013325e+05	4.991300e+02	9.765938e-02	3.045154e-05	
1.680672e-02	6.000000e-02	7.813295e-01	3.210511e+01	-1.980800e-04	4.727608e+04	0.000000e+00	0.000000e+00	7.813295e-01	2.731085e-131	5.975318e-26	1.013324e+05	4.991297e+02	9.764906e-02	3.045152e-05	
2.521008e-02	6.000000e-02	7.813282e-01	3.210348e+01	-7.216062e-05	4.727572e+04	0.000000e+00	0.000000e+00	7.813282e-01	9.843497e-130	5.390342e-25	1.013321e+05	4.991293e+02	9.764430e-02	3.045151e-05	
3.361345e-02	6.000000e-02	7.813269e-01	3.210285e+01	3.929778e-05	4.727542e+04	0.000000e+00	0.000000e+00	7.813269e-01	3.029312e-128	3.460846e-24	1.013319e+05	4.991290e+02	9.764257e-02	3.045149e-05	
4.201681e-02	6.000000e-02	7.813257e-01	3.210319e+01	1.204975e-04	4.727516e+04	0.000000e+00	0.000000e+00	7.813257e-01	8.338822e-127	1.762273e-23	1.013316e+05	4.991286e+02	9.764378e-02	3.045147e-05	
5.042017e-02	6.000000e-02	7.813244e-01	3.210425e+01	1.615810e-04	4.727494e+04	0.000000e+00	0.000000e+00	7.813244e-01	2.096698e-125	7.547258e-23	1.013314e+05	4.991283e+02	9.764719e-02	3.045146e-05	
5.882353e-02	6.000000e-02	7.813232e-01	3.210570e+01	1.598412e-04	4.727476e+04	0.000000e+00	0.000000e+00	7.813232e-01	4.880958e-124	2.821266e-22	1.013312e+05	4.991280e+02	9.765178e-02	3.045145e-05	
6.722689e-02	6.000000e-02	7.813220e-01	3.210715e+01	1.188023e-04	4.727459e+04	0.000000e+00	0.000000e+00	7.813220e-01	1.062863e-122	9.442564e-22	1.013310e+05	4.991277e+02	9.765639e-02	3.045143e-05	
7.563025e-02	6.000000e-02	7.813208e-01	3.210826e+01	4.597383e-05	4.727442e+04	0.000000e+00	0.000000e+00	7.813208e-01	2.182159e-121	2.882575e-21	1.013308e+05	4.991274e+02	9.765992e-02	3.045142e-05	
8.403361e-02	6.000000e-02	7.813197e-01	3.210870e+01	-4.865200e-05	4.727424e+04	0.000000e+00	0.000000e+00	7.813197e-01	4.249118e-120	8.139032e-21	1.013306e+05	4.991272e+02	9.766143e-02	3.045141e-05	
9.243697e-02	6.000000e-02	7.813185e-01	3.210827e+01	-1.530840e-04	4.727404e+04	0.000000e+00	0.000000e+00	7.813185e-01	7.881136e-119	2.148161e-20	1.013304e+05	4.991270e+02	9.766028e-02	3.045140e-05	
1.008403e-01	6.000000e-02	7.813174e-01	3.210685e+01	-2.537043e-04	4.727380e+04	0.000000e+00	0.000000e+00	7.813174e-01	1.396761e-117	5.344264e-20	1.013302e+05	4.991268e+02	9.765612e-02	3.045139e-05	
1.092437e-01	6.000000e-02	7.813162e-01	3.210447e+01	-3.363592e-04	4.727353e+04	0.000000e+00	0.000000e+00	7.813162e-01	2.370924e-116	1.261875e-19	1.013300e+05	4.991266e+02	9.764904e-02	3.045138e-05	
1.176471e-01	6.000000e-02	7.813152e-01	3.210128e+01	-3.883521e-04	4.727323e+04	0.000000e+00	0.000000e+00	7.813152e-01	3.861657e-115	2.843935e-19	1.013298e+05	4.991264e+02	9.763949e-02	3.045138e-05	
1.260504e-01	6.000000e-02	7.813141e-01	3.209755e+01	-4.008994e-04	4.727291e+04	0.000000e+00	0.000000e+00	7.813141e-01	6.044303e-114	6.146993e-19	1.013296e+05	4.991262e+02	9.762830e-02	3.045137e-05	
1.344538e-01	6.000000e-02	7.813132e-01	3.209364e+01	-3.712436e-04	4.727258e+04	0.000000e+00	0.000000e+00	7.813132e-01	9.103296e-113	1.279363e-18	1.013295e+05	4.991260e+02	9.761656e-02	3.045136e-05	
1.428571e-01	6.000000e-02	7.813123e-01	3.208994e+01	-3.036295e-04	4.727224e+04	0.000000e+00	0.000000e+00	7.813123e-01	1.320784e-111	2.572808e-18	1.013293e+05	4.991258e+02	9.760541e-02	3.045135e-05	
1.512605e-01	6.000000e-02	7.813115e-01	3.208678e+01	-2.087136e-04	4.727192e+04	0.000000e+00	0.000000e+00	7.813115e-01	1.848025e-110	5.014107e-18	1.013292e+05	4.991255e+02	9.759595e-02	3.045134e-05	
1.596639e-01	6.000000e-02	7.813107e-01	3.208445e+01	-1.015357e-04	4.727164e+04	0.000000e+00	0.000000e+00	7.813107e-01	2.496100e-109	9.494536e-18	1.013290e+05	4.991252e+02	9.758895e-02	3.045133e-05	
1.680672e-01	6.000000e-02	7.813100e-01	3.208305e+01	1.343461e-06	4.727140e+04	0.000000e+00	0.000000e+00	7.813100e-01	3.257653e-108	1.750753e-17	1.013289e+05	4.991250e+02	9.758483e-02	3.045131e-05	
1.764706e-01	6.000000e-02	7.813093e-01	3.208259e+01	8.471749e-05	4.727121e+04	0.000000e+00	0.000000e+00	7.813093e-01	4.111634e-107	3.150077e-17	1.013287e+05	4.991248e+02	9.758354e-02	3.045130e-05	
1.848739e-01	6.000000e-02	7.813087e-01	3.208291e+01	1.369116e-04	4.727107e+04	0.000000e+00	0.000000e+00	7.813087e-01	5.022952e-106	5.540307e-17	1.013286e+05	4.991245e+02	9.758462e-02	3.045129e-05	
1.932773e-01	6.000000e-02	7.813080e-01	3.208375e+01	1.510449e-04	4.727096e+04	0.000000e+00	0.000000e+00	7.813080e-01	5.944111e-105	9.538632e-17	1.013285e+05	4.991244e+02	9.758726e-02	3.045129e-05	
2.016807e-01	6.000000e-02	7.813073e-01	3.208476e+01	1.259952e-04	4.727087e+04	0.000000e+00	0.000000e+00	7.813073e-01	6.819103e-104	1.609858e-16	1.013284e+05	4.991242e+02	9.759042e-02	3.045128e-05	
2.100840e-01	6.000000e-02	7.813066e-01	3.208559e+01	6.648823e-05	4.727080e+04	0.000000e+00	0.000000e+00	7.813066e-01	7.589174e-103	2.667036e-16	1.013282e+05	4.991241e+02	9.759305e-02	3.045127e-05	
2.184874e-01	6.000000e-02	7.813059e-01	3.208592e+01	-1.178401e-05	4.727071e+04	0.000000e+00	0.000000e+00	7.813059e-01	8.199418e-102	4.342809e-16	1.013281e+05	4.991240e+02	9.759415e-02	3.045127e-05	
2.268908e-01	6.000000e-02	7.813053e-01	3.208559e+01	-1.121672e-04	4.727061e+04	0.000000e+00	0.000000e+00	7.813053e-01	8.605438e-101	6.958062e-16	1.013280e+05	4.991239e+02	9.759322e-02	3.045127e-05	
2.352941e-01	6.000000e-02	7.813047e-01	3.208433e+01	-1.644179e-04	4.727049e+04	0.000000e+00	0.000000e+00	7.813047e-01	8.779132e-100	1.097962e-15	1.013279e+05	4.991238e+02	9.758949e-02	3.045126e-05	
2.436975e-01	6.000000e-02	7.813040e-01	3.208198e+01	-2.446364e-04	4.727033e+04	0.000000e+00	0.000000e+00	7.813040e-01	8.710471e-99	1.707850e-15	1.013278e+05	4.991238e+02	9.758243e-02	3.045126e-05	
2.521008e-01	6.000000e-02	7.813034e-01	3.207864e+01	-3.094129e-04	4.727012e+04	0.000000e+00	0.000000e+00	7.813034e-01	8.410859e-98	2.620769e-15	1.013278e+05	4.991237e+02	9.757234e-02	3.045126e-05	
2.605042e-01	6.000000e-02	7.813029e-01	3.207466e+01	-3.410935e-04	4.726987e+04	0.000000e+00	0.000000e+00	7.813029e-01	7.908238e-97	3.970517e-15	1.013277e+05	4.991236e+02	9.756030e-02	3.045125e-05	
2.689076e-01	6.000000e-02	7.813024e-01	3.207044e+01	-3.379334e-04	4.726960e+04	0.000000e+00	0.000000e+00	7.813024e-01	7.244367e-96	5.942900e-15	1.013276e+05	4.991235e+02	9.754754e-02	3.045125e-05	
2.773109e-01	6.000000e-02	7.813020e-01	3.206636e+01	-3.014034e-04	4.726931e+04	0.000000e+00	0.000000e+00	7.813020e-01	6.469046e-95	8.793316e-15	1.013275e+05	4.991233e+02	9.753522e-02	3.045124e-05	
2.857143e-01	6.000000e-02	7.813016e-01	3.206277e+01	-2.378229e-04	4.726904e+04	0.000000e+00	0.000000e+00	7.813016e-01	5.634218e-94	1.286940e-14	1.013274e+05	4.991231e+02	9.752437e-02	3.045123e-05	
2.941176e-01	6.000000e-02	7.813013e-01	3.205994e+01	-1.566944e-04	4.726880e+04	0.000000e+00	0.000000e+00	7.813013e-01	4.788631e-93	1.863999e-14	1.013273e+05	4.991229e+02	9.751579e-02	3.045122e-05	
3.025210e-01	6.000000e-02	7.813009e-01	3.205800e+01	-6.987243e-05	4.726860e+04	0.000000e+00	0.000000e+00	7.813009e-01	3.973738e-92	2.673182e-14	1.013272e+05	4.991228e+02	9.750996e-02	3.045122e-05	
3.109244e-01	6.000000e-02	7.813006e-01	3.205698e+01	1.010617e-05	4.726845e+04	0.000000e+00	0.000000e+00	7.813006e-01	3.221197e-91	3.797573e-14	1.013272e+05	4.991226e+02	9.750693e-02	3.045121e-05	
3.193277e-01	6.000000e-02	7.813002e-01	3.205678e+01	7.156141e-05	4.726834e+04	0.000000e+00	0.000000e+00	7.813002e-01	2.551983e-90	5.346462e-14	1.013271e+05	4.991225e+02	9.750636e-02	3.045120e-05	
3.277311e-01	6.000000e-02	7.812998e-01	3.205715e+01	1.052647e-04	4.726827e+04	0.000000e+00	0.000000e+00	7.812998e-01	1.976934e-89	7.461944e-14	1.013270e+05	4.991224e+02	9.750756e-02	3.045120e-05	
3.361345e-01	6.000000e-02	7.812994e-01	3.205780e+01	1.057133e-04	4.726824e+04	0.000000e+00	0.000000e+00	7.812994e-01	1.498151e-88	1.032733e-13	1.013269e+05	4.991223e+02	9.750959e-02	3.045119e-05	
3.445378e-01	6.000000e-02	7.812990e-01	3.205837e+01	7.235909e-05	4.726821e+04	0.000000e+00	0.000000e+00	7.812990e-01	1.111093e-87	1.417824e-13	1.013269e+05	4.991222e+02	9.751140e-02	3.045119e-05	
3.529412e-01	6.000000e-02	7.812985e-01	3.205854e+01	9.920015e-06	4.726818e+04	0.000000e+00	0.000000e+00	7.812985e-01	8.067672e-87	1.931634e-13	1.013268e+05	4.991222e+02	9.751197e-02	3.045119e-05	
3.613445e-01	6.000000e-02	7.812980e-01	3.205803e+01	-7.241967e-05	4.726812e+04	0.000000e+00	0.000000e+00	7.812980e-01	5.737428e-86	2.612482e-13	1.013267e+05	4.991222e+02	9.751048e-02	3.045119e-05	
3.697479e-01	6.000000e-02	7.812975e-01	3.205667e+01	-1.625806e-04	4.726803e+04	0.000000e+00	0.000000e+00	7.812975e-01	3.997769e-85	3.508624e-13	1.013267e+05	4.991222e+02	9.750639e-02	3.045119e-05	
3.781513e-01	6.000000e-02	7.812970e-01	3.205440e+01	-2.475859e-04	4.726790e+04	0.000000e+00	0.000000e+00	7.812970e-01	2.730237e-84	4.680588e-13	1.013266e+05	4.991222e+02	9.749957e-02	3.045119e-05	
3.865546e-01	6.000000e-02	7.812965e-01	3.205132e+01	-3.154729e-04	4.726772e+04	0.000000e+00	0.000000e+00	7.812965e-01	1.828144e-83	6.203856e-13	1.013265e+05	4.991221e+02	9.749025e-02	3.045119e-05	
3.949580e-01	6.000000e-02	7.812962e-01	3.204761e+01	-3.571695e-04	4.726749e+04	0.000000e+00	0.000000e+00	7.812962e-01	1.200574e-82	8.172040e-13	1.013265e+05	4.991220e+02	9.747902e-02	3.045118e-05	
4.033613e-01	6.000000e-02	7.812958e-01	3.204356e+01	-3.674700e-04	4.726724e+04	0.000000e+00	0.000000e+00	7.812958e-01	7.735268e-82	1.070062e-12	1.013264e+05	4.991219e+02	9.746674e-02	3.045118e-05	
4.117647e-01	6.000000e-02	7.812956e-01	3.203948e+01	-3.456953e-04	4.726698e+04	0.000000e+00	0.000000e+00	7.812956e-01	4.891095e-81	1.393134e-12	1.013263e+05	4.991218e+02	9.745439e-02	3.045117e-05	
4.201681e-01	6.000000e-02	7.812953e-01	3.203569e+01	-2.957001e-04	4.726672e+04	0.000000e+00	0.000000e+00	7.812953e-01	3.036113e-80	1.803730e-12	1.013263e+05	4.991216e+02	9.744291e-02	3.045117e-05	
4.285714e-01	6.000000e-02	7.812951e-01	3.203245e+01	-2.251918e-04	4.726648e+04	0.000000e+00	0.000000e+00	7.812951e-01	1.850747e-79	2.322892e-12	1.013262e+05	4.991214e+02	9.743309e-02	3.045116e-05	
4.369748e-01	6.000000e-02	7.812949e-01	3.202993e+01	-1.442364e-04	4.726627e+04	0.000000e+00	0.000000e+00	7.812949e-01	1.108226e-78	2.976075e-12	1.013262e+05	4.991213e+02	9.742546e-02	3.045115e-05	
4.453782e-01	6.000000e-02	7.812947e-01	3.202818e+01	-6.424701e-05	4.726611e+04	0.000000e+00	0.000000e+00	7.812947e-01	6.520731e-78	3.793947e-12	1.013261e+05	4.991211e+02	9.742020e-02	3.045114e-05	
4.537815e-01	6.000000e-02	7.812945e-01	3.202716e+01	4.748810e-06	4.726599e+04	0.000000e+00	0.000000e+00	7.812945e-01	3.771216e-77	4.813290e-12	1.013260e+05	4.991210e+02	9.741712e-02	3.045114e-05	
4.621849e-01	6.000000e-02	7.812942e-01	3.202669e+01	5.370575e-05	4.726591e+04	0.000000e+00	0.000000e+00	7.812942e-01	2.144421e-76	6.078049e-12	1.013260e+05	4.991209e+02	9.741575e-02	3.045114e-05	
4.705882e-01	6.000000e-02	7.812938e-01	3.202654e+01	7.638664e-05	4.726586e+04	0.000000e+00	0.000000e+00	7.812938e-01	1.199231e-75	7.640540e-12	1.013259e+05	4.991209e+02	9.741532e-02	3.045113e-05	
4.789916e-01	6.000000e-02	7.812935e-01	3.202639e+01	6.817430e-05	4.726583e+04	0.000000e+00	0.000000e+00	7.812935e-01	6.597444e-75	9.562782e-12	1.013259e+05	4.991209e+02	9.741493e-02	3.045113e-05	
4.873950e-01	6.000000e-02	7.812930e-01	3.202595e+01	3.053691e-05	4.726581e+04	0.000000e+00	0.000000e+00	7.812930e-01	3.571389e-74	1.191801e-11	1.013258e+05	4.991209e+02	9.741365e-02	3.045114e-05	
4.957983e-01	6.000000e-02	7.812926e-01	3.202506e+01	-3.084402e-05	4.726576e+04	0.000000e+00	0.000000e+00	7.812926e-01	1.902779e-73	1.479244e-11	1.013258e+05	4.991210e+02	9.741099e-02	3.045114e-05	
5.042017e-01	6.000000e-02	7.812922e-01	3.202360e+01	-1.030544e-04	4.726570e+04	0.000000e+00	0.000000e+00	7.812922e-01	9.981037e-73	1.828722e-11	1.013257e+05	4.991210e+02	9.740659e-02	3.045114e-05	
5.126050e-01	6.000000e-02	7.812918e-01	3.202144e+01	-1.714364e-04	4.726560e+04	0.000000e+00	0.000000e+00	7.812918e-01	5.154005e-72	2.252039e-11	1.013257e+05	4.991210e+02	9.740007e-02	3.045114e-05	
5.210084e-01	6.000000e-02	7.812915e-01	3.201859e+01	-2.362197e-04	4.726545e+04	0.000000e+00	0.000000e+00	7.812915e-01	2.621226e-71	2.762956e-11	1.013256e+05	4.991210e+02	9.739144e-02	3.045114e-05	
5.294118e-01	6.000000e-02	7.812912e-01	3.201517e+01	-2.850393e-04	4.726526e+04	0.000000e+00	0.000000e+00	7.812912e-01	1.313149e-70	3.377446e-11	1.013256e+05	4.991209e+02	9.738105e-02	3.045114e-05	
5.378151e-01	6.000000e-02	7.812910e-01	3.201136e+01	-3.110970e-04	4.726504e+04	0.000000e+00	0.000000e+00	7.812910e-01	6.481125e-70	4.113985e-11	1.013256e+05	4.991208e+02	9.736950e-02	3.045113e-05	
5.462185e-01	6.000000e-02	7.812909e-01	3.200740e+01	-3.099317e-04	4.726479e+04	0.000000e+00	0.000000e+00	7.812909e-01	3.152102e-69	4.993886e-11	1.013255e+05	4.991207e+02	9.735750e-02	3.045113e-05	
5.546218e-01	6.000000e-02	7.812909e-01	3.200356e+01	-2.820285e-04	4.726455e+04	0.000000e+00	0.000000e+00	7.812909e-01	1.510953e-68	6.041654e-11	1.013255e+05	4.991205e+02	9.734583e-02	3.045112e-05	
5.630252e-01	6.000000e-02	7.812908e-01	3.200007e+01	-2.322871e-04	4.726431e+04	0.000000e+00	0.000000e+00	7.812908e-01	7.139864e-68	7.285381e-11	1.013254e+05	4.991204e+02	9.733525e-02	3.045111e-05	
5.714286e-01	6.000000e-02	7.812908e-01	3.199713e+01	-1.703579e-04	4.726410e+04	0.000000e+00	0.000000e+00	7.812908e-01	3.326637e-67	8.757177e-11	1.013254e+05	4.991202e+02	9.732630e-02	3.045110e-05	
5.798319e-01	6.000000e-02	7.812907e-01	3.199481e+01	-1.070295e-04	4.726394e+04	0.000000e+00	0.000000e+00	7.812907e-01	1.528570e-66	1.049365e-10	1.013254e+05	4.991201e+02	9.731926e-02	3.045110e-05	
5.882353e-01	6.000000e-02	7.812906e-01	3.199311e+01	-5.353174e-05	4.726382e+04	0.000000e+00	0.000000e+00	7.812906e-01	6.928138e-66	1.253643e-10	1.013253e+05	4.991200e+02	9.731412e-02	3.045110e-05	
5.966387e-01	6.000000e-02	7.812904e-01	3.199192e+01	-1.850019e-05	4.726374e+04	0.000000e+00	0.000000e+00	7.812904e-01	3.098016e-65	1.493274e-10	1.013253e+05	4.991200e+02	9.731053e-02	3.045109e-05	
6.050420e-01	6.000000e-02	7.812902e-01	3.199105e+01	-7.392344e-06	4.726370e+04	0.000000e+00	0.000000e+00	7.812902e-01	1.366999e-64	1.773606e-10	1.013253e+05	4.991200e+02	9.730792e-02	3.045109e-05	
6.134454e-01	6.000000e-02	7.812899e-01	3.199027e+01	-2.163907e-05	4.726368e+04	0.000000e+00	0.000000e+00	7.812899e-01	5.953152e-64	2.100681e-10	1.013253e+05	4.991201e+02	9.730558e-02	3.045110e-05	
6.218487e-01	6.000000e-02	7.812895e-01	3.198934e+01	-5.914315e-05	4.726366e+04	0.000000e+00	0.000000e+00	7.812895e-01	2.559131e-63	2.481316e-10	1.013252e+05	4.991201e+02	9.730277e-02	3.045110e-05	
6.302521e-01	6.000000e-02	7.812892e-01	3.198803e+01	-1.136585e-04	4.726363e+04	0.000000e+00	0.000000e+00	7.812892e-01	1.086106e-62	2.923190e-10	1.013252e+05	4.991202e+02	9.729883e-02	3.045110e-05	
6.386555e-01	6.000000e-02	7.812889e-01	3.198619e+01	-1.768758e-04	4.726358e+04	0.000000e+00	0.000000e+00	7.812889e-01	4.551453e-62	3.434935e-10	1.013252e+05	4.991203e+02	9.729327e-02	3.045111e-05	
6.470588e-01	6.000000e-02	7.812886e-01	3.198373e+01	-2.399348e-04	4.726349e+04	0.000000e+00	0.000000e+00	7.812886e-01	1.883589e-61	4.026239e-10	1.013251e+05	4.991203e+02	9.728582e-02	3.045111e-05	
6.554622e-01	6.000000e-02	7.812884e-01	3.198066e+01	-2.931803e-04	4.726336e+04	0.000000e+00	0.000000e+00	7.812884e-01	7.699068e-61	4.707948e-10	1.013251e+05	4.991204e+02	9.727650e-02	3.045111e-05	
6.638655e-01	6.000000e-02	7.812883e-01	3.197707e+01	-3.298256e-04	4.726318e+04	0.000000e+00	0.000000e+00	7.812883e-01	3.108588e-60	5.492184e-10	1.013251e+05	4.991203e+02	9.726559e-02	3.045111e-05	
6.722689e-01	6.000000e-02	7.812882e-01	3.197311e+01	-3.450583e-04	4.726297e+04	0.000000e+00	0.000000e+00	7.812882e-01	1.239989e-59	6.392459e-10	1.013251e+05	4.991202e+02	9.725358e-02	3.045110e-05	
6.806723e-01	6.000000e-02	7.812883e-01	3.196901e+01	-3.378083e-04	4.726274e+04	0.000000e+00	0.000000e+00	7.812883e-01	4.887191e-59	7.423808e-10	1.013251e+05	4.991201e+02	9.724111e-02	3.045110e-05	
6.890756e-01	6.000000e-02	7.812884e-01	3.196499e+01	-3.097774e-04	4.726250e+04	0.000000e+00	0.000000e+00	7.812884e-01	1.903473e-58	8.602916e-10	1.013250e+05	4.991200e+02	9.722886e-02	3.045109e-05	
6.974790e-01	6.000000e-02	7.812885e-01	3.196124e+01	-2.654959e-04	4.726227e+04	0.000000e+00	0.000000e+00	7.812885e-01	7.327239e-58	9.948264e-10	1.013250e+05	4.991198e+02	9.721747e-02	3.045109e-05	
7.058824e-01	6.000000e-02	7.812886e-01	3.195793e+01	-2.108420e-04	4.726207e+04	0.000000e+00	0.000000e+00	7.812886e-01	2.788057e-57	1.148027e-09	1.013250e+05	4.991197e+02	9.720739e-02	3.045108e-05	
7.142857e-01	6.000000e-02	7.812887e-01	3.195512e+01	-1.534873e-04	4.726191e+04	0.000000e+00	0.000000e+00	7.812887e-01	1.048801e-56	1.322146e-09	1.013250e+05	4.991196e+02	9.719886e-02	3.045108e-05	
7.226891e-01	6.000000e-02	7.812887e-01	3.195281e+01	-1.016969e-04	4.726179e+04	0.000000e+00	0.000000e+00	7.812887e-01	3.901002e-56	1.519661e-09	1.013250e+05	4.991196e+02	9.719184e-02	3.045107e-05	
7.310924e-01	6.000000e-02	7.812887e-01	3.195090e+01	-6.408305e-05	4.726172e+04	0.000000e+00	0.000000e+00	7.812887e-01	1.434869e-55	1.743292e-09	1.013250e+05	4.991196e+02	9.718602e-02	3.045107e-05	
7.394958e-01	6.000000e-02	7.812886e-01	3.194921e+01	-4.657882e-05	4.726167e+04	0.000000e+00	0.000000e+00	7.812886e-01	5.219879e-55	1.996025e-09	1.013250e+05	4.991196e+02	9.718088e-02	3.045108e-05	
7.478992e-01	6.000000e-02	7.812884e-01	3.194754e+01	-5.139202e-05	4.726165e+04	0.000000e+00	0.000000e+00	7.812884e-01	1.878351e-54	2.281125e-09	1.013250e+05	4.991197e+02	9.717581e-02	3.045108e-05	
7.563025e-01	6.000000e-02	7.812882e-01	3.194571e+01	-7.693377e-05	4.726164e+04	0.000000e+00	0.000000e+00	7.812882e-01	6.688155e-54	2.602170e-09	1.013250e+05	4.991199e+02	9.717026e-02	3.045109e-05	
7.647059e-01	6.000000e-02	7.812880e-01	3.194360e+01	-1.196269e-04	4.726161e+04	0.000000e+00	0.000000e+00	7.812880e-01	2.355814e-53	2.963042e-09	1.013250e+05	4.991200e+02	9.716385e-02	3.045109e-05	
7.731092e-01	6.000000e-02	7.812878e-01	3.194110e+01	-1.705804e-04	4.726157e+04	0.000000e+00	0.000000e+00	7.812878e-01	8.208868e-53	3.367971e-09	1.013250e+05	4.991201e+02	9.715628e-02	3.045110e-05	
7.815126e-01	6.000000e-02	7.812877e-01	3.193813e+01	-2.232194e-04	4.726148e+04	0.000000e+00	0.000000e+00	7.812877e-01	2.830993e-52	3.821580e-09	1.013250e+05	4.991202e+02	9.714726e-02	3.045110e-05	
7.899160e-01	6.000000e-02	7.812876e-01	3.193467e+01	-2.693135e-04	4.726136e+04	0.000000e+00	0.000000e+00	7.812876e-01	9.662902e-52	4.328883e-09	1.013250e+05	4.991202e+02	9.713674e-02	3.045110e-05	
7.983193e-01	6.000000e-02	7.812876e-01	3.193079e+01	-3.028955e-04	4.726119e+04	0.000000e+00	0.000000e+00	7.812876e-01	3.264422e-51	4.895317e-09	1.013250e+05	4.991202e+02	9.712491e-02	3.045110e-05	
8.067227e-01	6.000000e-02	7.812877e-01	3.192660e+01	-3.196939e-04	4.726098e+04	0.000000e+00	0.000000e+00	7.812877e-01	1.091620e-50	5.526769e-09	1.013250e+05	4.991201e+02	9.711218e-02	3.045110e-05	
8.151261e-01	6.000000e-02	7.812878e-01	3.192230e+01	-3.178404e-04	4.726075e+04	0.000000e+00	0.000000e+00	7.812878e-01	3.613658e-50	6.229610e-09	1.013250e+05	4.991200e+02	9.709907e-02	3.045109e-05	
8.235294e-01	6.000000e-02	7.812880e-01	3.191805e+01	-2.984151e-04	4.726050e+04	0.000000e+00	0.000000e+00	7.812880e-01	1.184350e-49	7.010716e-09	1.013250e+05	4.991199e+02	9.708615e-02	3.045109e-05	
8.319328e-01	6.000000e-02	7.812882e-01	3.191403e+01	-2.654206e-04	4.726027e+04	0.000000e+00	0.000000e+00	7.812882e-01	3.843402e-49	7.877502e-09	1.013250e+05	4.991197e+02	9.707391e-02	3.045108e-05	
8.403361e-01	6.000000e-02	7.812884e-01	3.191037e+01	-2.250471e-04	4.726006e+04	0.000000e+00	0.000000e+00	7.812884e-01	1.235093e-48	8.837959e-09	1.013250e+05	4.991196e+02	9.706275e-02	3.045108e-05	
8.487395e-01	6.000000e-02	7.812885e-01	3.190711e+01	-1.844918e-04	4.725989e+04	0.000000e+00	0.000000e+00	7.812885e-01	3.930764e-48	9.900685e-09	1.013250e+05	4.991195e+02	9.705284e-02	3.045107e-05	
8.571429e-01	6.000000e-02	7.812886e-01	3.190424e+01	-1.506476e-04	4.725976e+04	0.000000e+00	0.000000e+00	7.812885e-01	1.239061e-47	1.107493e-08	1.013250e+05	4.991195e+02	9.704412e-02	3.045107e-05	
8.655462e-01	6.000000e-02	7.812885e-01	3.190169e+01	-1.290265e-04	4.725966e+04	0.000000e+00	0.000000e+00	7.812885e-01	3.868938e-47	1.237066e-08	1.013250e+05	4.991195e+02	9.703635e-02	3.045107e-05	
8.739496e-01	6.000000e-02	7.812884e-01	3.189931e+01	-1.228480e-04	4.725960e+04	0.000000e+00	0.000000e+00	7.812884e-01	1.196788e-46	1.379858e-08	1.013250e+05	4.991196e+02	9.702914e-02	3.045108e-05	
8.823529e-01	6.000000e-02	7.812882e-01	3.189697e+01	-1.329209e-04	4.725956e+04	0.000000e+00	0.000000e+00	7.812882e-01	3.667839e-46	1.537021e-08	1.013250e+05	4.991197e+02	9.702201e-02	3.045108e-05	
8.907563e-01	6.000000e-02	7.812880e-01	3.189449e+01	-1.574580e-04	4.725952e+04	0.000000e+00	0.000000e+00	7.812880e-01	1.113804e-45	1.709797e-08	1.013250e+05	4.991198e+02	9.701450e-02	3.045109e-05	
8.991597e-01	6.000000e-02	7.812878e-01	3.189176e+01	-1.919928e-04	4.725948e+04	0.000000e+00	0.000000e+00	7.812878e-01	3.351567e-45	1.899519e-08	1.013250e+05	4.991200e+02	9.700621e-02	3.045109e-05	
9.075630e-01	6.000000e-02	7.812876e-01	3.188868e+01	-2.312049e-04	4.725941e+04	0.000000e+00	0.000000e+00	7.812876e-01	9.994492e-45	2.107622e-08	1.013250e+05	4.991201e+02	9.699685e-02	3.045110e-05	
9.159664e-01	6.000000e-02	7.812875e-01	3.188521e+01	-2.692903e-04	4.725930e+04	0.000000e+00	0.000000e+00	7.812875e-01	2.953778e-44	2.335646e-08	1.013250e+05	4.991202e+02	9.698630e-02	3.045110e-05	