TITLE = "SU2 Simulation"
VARIABLES = "Iteration","CLift","CDrag","CSideForce","CMx","CMy","CMz","CFx","CFy","CFz","CL/CD","HeatFlux_Total","HeatFlux_Maximum","Res_Flow[0]","Res_Flow[1]","Res_Flow[2]","Res_Flow[3]","Res_Flow[4]","Res_Turb[0]","Res_Turb[1]","Linear_Solver_Iterations","CFL_Number","Time(min)"
ZONE T= "Convergence history"
           0, 3.0000000000, 0.2000000000, 0.0384508333
           1, 3.0000000000, 0.2000000000, 0.0650983333
           2, 3.0000000000, 0.2000000000, 0.0922439500
           3, 3.0000000000, 0.2000000000, 0.1165423167
           4, 3.0000000000, 0.2000000000, 0.1435439000
           5, 3.0000000000, 0.2000000000, 0.1704762833
