TITLE = "Visualization of the surface solution"
VARIABLES = "x""y""Conservative_1""Conservative_2""Conservative_3""Conservative_4""Conservative_5""Conservative_6""Conservative_7""Conservative_8""Conservative_9""Pressure""Temperature""Mach""Laminar_Viscosity""<greek>m</greek><sub>t</sub>"
ZONE NODES= 113, ELEMENTS= 112, DATAPACKING=POINT, ZONETYPE=FELINESEG
0.000000e+00	2.220446e-16	1.323635e+00	0.000000e+00	0.000000e+00	-4.683667e+05	2.908027e-01	3.997379e-02	9.928588e-01	1.000000e-10	2.736595e+09	1.133109e+05	2.999255e+02	0.000000e+00	1.841431e-05	4.837510e-20	
4.011888e-03	2.220446e-16	1.323546e+00	0.000000e+00	0.000000e+00	-4.683424e+05	2.907832e-01	3.997110e-02	9.927922e-01	1.000000e-10	2.736657e+09	1.133005e+05	2.999181e+02	0.000000e+00	1.841395e-05	4.837078e-20	
8.056205e-03	2.220446e-16	1.323561e+00	0.000000e+00	0.000000e+00	-4.683463e+05	2.907864e-01	3.997154e-02	9.928031e-01	1.000000e-10	2.736646e+09	1.133022e+05	2.999193e+02	0.000000e+00	1.841401e-05	4.837149e-20	
1.213423e-02	2.220446e-16	1.323561e+00	0.000000e+00	0.000000e+00	-4.683463e+05	2.907864e-01	3.997154e-02	9.928031e-01	1.000000e-10	2.736647e+09	1.133022e+05	2.999193e+02	0.000000e+00	1.841401e-05	4.837149e-20	
1.624727e-02	2.220446e-16	1.323561e+00	0.000000e+00	0.000000e+00	-4.683463e+05	2.907864e-01	3.997154e-02	9.928031e-01	1.000000e-10	2.736647e+09	1.133022e+05	2.999193e+02	0.000000e+00	1.841401e-05	4.837149e-20	
2.039667e-02	2.220446e-16	1.323561e+00	0.000000e+00	0.000000e+00	-4.683463e+05	2.907864e-01	3.997154e-02	9.928031e-01	1.000000e-10	2.736647e+09	1.133022e+05	2.999193e+02	0.000000e+00	1.841401e-05	4.837149e-20	
2.458382e-02	2.220446e-16	1.323561e+00	0.000000e+00	0.000000e+00	-4.683463e+05	2.907864e-01	3.997154e-02	9.928031e-01	1.000000e-10	2.736647e+09	1.133022e+05	2.999193e+02	0.000000e+00	1.841401e-05	4.837149e-20	
2.881016e-02	2.220446e-16	1.323561e+00	0.000000e+00	0.000000e+00	-4.683463e+05	2.907864e-01	3.997154e-02	9.928031e-01	1.000000e-10	2.736647e+09	1.133022e+05	2.999193e+02	0.000000e+00	1.841401e-05	4.837149e-20	
3.307715e-02	2.220446e-16	1.323561e+00	0.000000e+00	0.000000e+00	-4.683463e+05	2.907864e-01	3.997154e-02	9.928031e-01	1.000000e-10	2.736647e+09	1.133022e+05	2.999193e+02	0.000000e+00	1.841401e-05	4.837149e-20	
3.738632e-02	2.220446e-16	1.323561e+00	0.000000e+00	0.000000e+00	-4.683463e+05	2.907864e-01	3.997154e-02	9.928031e-01	1.000000e-10	2.736647e+09	1.133022e+05	2.999193e+02	0.000000e+00	1.841401e-05	4.837149e-20	
4.173924e-02	2.220446e-16	1.323561e+00	0.000000e+00	0.000000e+00	-4.683463e+05	2.907863e-01	3.997154e-02	9.928031e-01	1.000000e-10	2.736647e+09	1.133022e+05	2.999193e+02	0.000000e+00	1.841401e-05	4.837148e-20	
4.613751e-02	2.220446e-16	1.323561e+00	0.000000e+00	0.000000e+00	-4.683463e+05	2.907863e-01	3.997154e-02	9.928031e-01	1.000000e-10	2.736647e+09	1.133022e+05	2.999193e+02	0.000000e+00	1.841401e-05	4.837148e-20	
5.058283e-02	2.220446e-16	1.323561e+00	0.000000e+00	0.000000e+00	-4.683463e+05	2.907863e-01	3.997154e-02	9.928031e-01	1.000000e-10	2.736647e+09	1.133022e+05	2.999193e+02	0.000000e+00	1.841401e-05	4.837148e-20	
5.507691e-02	2.220446e-16	1.323561e+00	0.000000e+00	0.000000e+00	-4.683463e+05	2.907863e-01	3.997154e-02	9.928031e-01	1.000000e-10	2.736647e+09	1.133022e+05	2.999193e+02	0.000000e+00	1.841401e-05	4.837148e-20	
5.962155e-02	2.220446e-16	1.323561e+00	0.000000e+00	0.000000e+00	-4.683463e+05	2.907863e-01	3.997154e-02	9.928031e-01	1.000000e-10	2.736647e+09	1.133022e+05	2.999193e+02	0.000000e+00	1.841401e-05	4.837148e-20	
6.421860e-02	2.220446e-16	1.323561e+00	0.000000e+00	0.000000e+00	-4.683463e+05	2.907863e-01	3.997154e-02	9.928031e-01	1.000000e-10	2.736647e+09	1.133022e+05	2.999193e+02	0.000000e+00	1.841401e-05	4.837148e-20	
6.886998e-02	2.220446e-16	1.323561e+00	0.000000e+00	0.000000e+00	-4.683463e+05	2.907863e-01	3.997154e-02	9.928031e-01	1.000000e-10	2.736647e+09	1.133022e+05	2.999193e+02	0.000000e+00	1.841401e-05	4.837148e-20	
7.357766e-02	2.220446e-16	1.323561e+00	0.000000e+00	0.000000e+00	-4.683463e+05	2.907863e-01	3.997154e-02	9.928031e-01	1.000000e-10	2.736647e+09	1.133022e+05	2.999193e+02	0.000000e+00	1.841401e-05	4.837148e-20	
7.834372e-02	2.220446e-16	1.323561e+00	0.000000e+00	0.000000e+00	-4.683463e+05	2.907863e-01	3.997154e-02	9.928031e-01	1.000000e-10	2.736647e+09	1.133022e+05	2.999193e+02	0.000000e+00	1.841401e-05	4.837148e-20	
8.317028e-02	2.220446e-16	1.323561e+00	0.000000e+00	0.000000e+00	-4.683463e+05	2.907863e-01	3.997154e-02	9.928031e-01	1.000000e-10	2.736647e+09	1.133022e+05	2.999193e+02	0.000000e+00	1.841401e-05	4.837147e-20	
8.805957e-02	2.220446e-16	1.323561e+00	0.000000e+00	0.000000e+00	-4.683463e+05	2.907863e-01	3.997154e-02	9.928031e-01	1.000000e-10	2.736647e+09	1.133022e+05	2.999193e+02	0.000000e+00	1.841401e-05	4.837147e-20	
9.301388e-02	2.220446e-16	1.323561e+00	0.000000e+00	0.000000e+00	-4.683463e+05	2.907863e-01	3.997154e-02	9.928031e-01	1.000000e-10	2.736647e+09	1.133022e+05	2.999193e+02	0.000000e+00	1.841401e-05	4.837147e-20	
9.803561e-02	2.220446e-16	1.323561e+00	0.000000e+00	0.000000e+00	-4.683463e+05	2.907863e-01	3.997154e-02	9.928031e-01	1.000000e-10	2.736647e+09	1.133022e+05	2.999193e+02	0.000000e+00	1.841401e-05	4.837147e-20	
1.031273e-01	2.220446e-16	1.323561e+00	0.000000e+00	0.000000e+00	-4.683463e+05	2.907863e-01	3.997154e-02	9.928031e-01	1.000000e-10	2.736647e+09	1.133022e+05	2.999193e+02	0.000000e+00	1.841401e-05	4.837147e-20	
1.082914e-01	2.220446e-16	1.323561e+00	0.000000e+00	0.000000e+00	-4.683463e+05	2.907863e-01	3.997154e-02	9.928030e-01	1.000000e-10	2.736648e+09	1.133022e+05	2.999193e+02	0.000000e+00	1.841401e-05	4.837147e-20	
1.135307e-01	2.220446e-16	1.323561e+00	0.000000e+00	0.000000e+00	-4.683463e+05	2.907863e-01	3.997154e-02	9.928030e-01	1.000000e-10	2.736648e+09	1.133022e+05	2.999193e+02	0.000000e+00	1.841401e-05	4.837147e-20	
1.188480e-01	2.220446e-16	1.323561e+00	0.000000e+00	0.000000e+00	-4.683463e+05	2.907863e-01	3.997154e-02	9.928030e-01	1.000000e-10	2.736648e+09	1.133022e+05	2.999193e+02	0.000000e+00	1.841401e-05	4.837147e-20	
1.242462e-01	2.220446e-16	1.323561e+00	0.000000e+00	0.000000e+00	-4.683463e+05	2.907863e-01	3.997154e-02	9.928030e-01	1.000000e-10	2.736648e+09	1.133022e+05	2.999193e+02	0.000000e+00	1.841401e-05	4.837147e-20	
1.297284e-01	2.220446e-16	1.323561e+00	0.000000e+00	0.000000e+00	-4.683463e+05	2.907863e-01	3.997154e-02	9.928030e-01	1.000000e-10	2.736648e+09	1.133022e+05	2.999193e+02	0.000000e+00	1.841401e-05	4.837146e-20	
1.352978e-01	2.220446e-16	1.323561e+00	0.000000e+00	0.000000e+00	-4.683463e+05	2.907863e-01	3.997154e-02	9.928030e-01	1.000000e-10	2.736648e+09	1.133022e+05	2.999193e+02	0.000000e+00	1.841401e-05	4.837146e-20	
1.409576e-01	2.220446e-16	1.323561e+00	0.000000e+00	0.000000e+00	-4.683463e+05	2.907863e-01	3.997154e-02	9.928030e-01	1.000000e-10	2.736648e+09	1.133022e+05	2.999193e+02	0.000000e+00	1.841401e-05	4.837146e-20	
1.467113e-01	2.220446e-16	1.323561e+00	0.000000e+00	0.000000e+00	-4.683463e+05	2.907863e-01	3.997154e-02	9.928030e-01	1.000000e-10	2.736648e+09	1.133022e+05	2.999193e+02	0.000000e+00	1.841401e-05	4.837146e-20	
1.525626e-01	2.220446e-16	1.323561e+00	0.000000e+00	0.000000e+00	-4.683463e+05	2.907863e-01	3.997154e-02	9.928030e-01	1.000000e-10	2.736648e+09	1.133022e+05	2.999193e+02	0.000000e+00	1.841401e-05	4.837146e-20	
1.585153e-01	2.220446e-16	1.323561e+00	0.000000e+00	0.000000e+00	-4.683463e+05	2.907863e-01	3.997154e-02	9.928030e-01	1.000000e-10	2.736648e+09	1.133022e+05	2.999193e+02	0.000000e+00	1.841401e-05	4.837146e-20	
1.645732e-01	2.220446e-16	1.323561e+00	0.000000e+00	0.000000e+00	-4.683463e+05	2.907863e-01	3.997154e-02	9.928030e-01	1.000000e-10	2.736648e+09	1.133022e+05	2.999193e+02	0.000000e+00	1.841401e-05	4.837146e-20	
1.707407e-01	2.220446e-16	1.323561e+00	0.000000e+00	0.000000e+00	-4.683463e+05	2.907863e-01	3.997154e-02	9.928030e-01	1.000000e-10	2.736648e+09	1.133022e+05	2.999193e+02	0.000000e+00	1.841401e-05	4.837146e-20	
1.770220e-01	2.220446e-16	1.323561e+00	0.000000e+00	0.000000e+00	-4.683463e+05	2.907863e-01	3.997154e-02	9.928030e-01	1.000000e-10	2.736648e+09	1.133022e+05	2.999193e+02	0.000000e+00	1.841401e-05	4.837145e-20	
1.834217e-01	2.220446e-16	1.323561e+00	0.000000e+00	0.000000e+00	-4.683463e+05	2.907863e-01	3.997154e-02	9.928030e-01	1.000000e-10	2.736648e+09	1.133022e+05	2.999193e+02	0.000000e+00	1.841401e-05	4.837145e-20	
1.899446e-01	2.220446e-16	1.323561e+00	0.000000e+00	0.000000e+00	-4.683463e+05	2.907863e-01	3.997154e-02	9.928030e-01	1.000000e-10	2.736648e+09	1.133022e+05	2.999193e+02	0.000000e+00	1.841401e-05	4.837145e-20	
1.965957e-01	2.220446e-16	1.323561e+00	0.000000e+00	0.000000e+00	-4.683463e+05	2.907863e-01	3.997154e-02	9.928030e-01	1.000000e-10	2.736648e+09	1.133022e+05	2.999193e+02	0.000000e+00	1.841401e-05	4.837145e-20	
2.033804e-01	2.220446e-16	1.323561e+00	0.000000e+00	0.000000e+00	-4.683463e+05	2.907863e-01	3.997154e-02	9.928030e-01	1.000000e-10	2.736648e+09	1.133022e+05	2.999193e+02	0.000000e+00	1.841401e-05	4.837145e-20	
2.103042e-01	2.220446e-16	1.323561e+00	0.000000e+00	0.000000e+00	-4.683463e+05	2.907863e-01	3.997154e-02	9.928030e-01	1.000000e-10	2.736648e+09	1.133022e+05	2.999193e+02	0.000000e+00	1.841401e-05	4.837145e-20	
2.173729e-01	2.220446e-16	1.323561e+00	0.000000e+00	0.000000e+00	-4.683463e+05	2.907863e-01	3.997154e-02	9.928030e-01	1.000000e-10	2.736648e+09	1.133022e+05	2.999193e+02	0.000000e+00	1.841401e-05	4.837145e-20	
2.245927e-01	2.220446e-16	1.323561e+00	0.000000e+00	0.000000e+00	-4.683463e+05	2.907863e-01	3.997154e-02	9.928030e-01	1.000000e-10	2.736649e+09	1.133022e+05	2.999193e+02	0.000000e+00	1.841401e-05	4.837145e-20	
2.319702e-01	2.220446e-16	1.323561e+00	0.000000e+00	0.000000e+00	-4.683463e+05	2.907863e-01	3.997154e-02	9.928030e-01	1.000000e-10	2.736649e+09	1.133022e+05	2.999193e+02	0.000000e+00	1.841401e-05	4.837144e-20	
2.395121e-01	2.220446e-16	1.323561e+00	0.000000e+00	0.000000e+00	-4.683463e+05	2.907863e-01	3.997154e-02	9.928030e-01	1.000000e-10	2.736649e+09	1.133022e+05	2.999193e+02	0.000000e+00	1.841401e-05	4.837144e-20	
2.472258e-01	2.220446e-16	1.323561e+00	0.000000e+00	0.000000e+00	-4.683463e+05	2.907863e-01	3.997154e-02	9.928030e-01	1.000000e-10	2.736649e+09	1.133022e+05	2.999193e+02	0.000000e+00	1.841401e-05	4.837144e-20	
2.551188e-01	2.220446e-16	1.323561e+00	0.000000e+00	0.000000e+00	-4.683463e+05	2.907863e-01	3.997154e-02	9.928030e-01	1.000000e-10	2.736649e+09	1.133022e+05	2.999193e+02	0.000000e+00	1.841401e-05	4.837144e-20	
2.631993e-01	2.220446e-16	1.323561e+00	0.000000e+00	0.000000e+00	-4.683463e+05	2.907863e-01	3.997154e-02	9.928030e-01	1.000000e-10	2.736649e+09	1.133022e+05	2.999193e+02	0.000000e+00	1.841401e-05	4.837144e-20	
2.714757e-01	2.220446e-16	1.323561e+00	0.000000e+00	0.000000e+00	-4.683463e+05	2.907863e-01	3.997154e-02	9.928030e-01	1.000000e-10	2.736649e+09	1.133022e+05	2.999193e+02	0.000000e+00	1.841401e-05	4.837144e-20	
2.799573e-01	2.220446e-16	1.323561e+00	0.000000e+00	0.000000e+00	-4.683463e+05	2.907863e-01	3.997154e-02	9.928029e-01	1.000000e-10	2.736649e+09	1.133022e+05	2.999193e+02	0.000000e+00	1.841401e-05	4.837144e-20	
2.886535e-01	2.220446e-16	1.323555e+00	0.000000e+00	0.000000e+00	-4.683447e+05	2.907851e-01	3.997137e-02	9.927987e-01	1.000000e-10	2.736648e+09	1.133015e+05	2.999189e+02	0.000000e+00	1.841399e-05	4.837125e-20	
2.975746e-01	2.220446e-16	1.323555e+00	0.000000e+00	0.000000e+00	-4.683447e+05	2.907851e-01	3.997137e-02	9.927987e-01	1.000000e-10	2.736648e+09	1.133015e+05	2.999189e+02	0.000000e+00	1.841399e-05	4.837125e-20	
3.067315e-01	2.220446e-16	1.323555e+00	0.000000e+00	0.000000e+00	-4.683447e+05	2.907851e-01	3.997137e-02	9.927987e-01	1.000000e-10	2.736648e+09	1.133015e+05	2.999189e+02	0.000000e+00	1.841399e-05	4.837125e-20	
3.161355e-01	2.220446e-16	1.323555e+00	0.000000e+00	0.000000e+00	-4.683447e+05	2.907851e-01	3.997137e-02	9.927987e-01	1.000000e-10	2.736648e+09	1.133015e+05	2.999189e+02	0.000000e+00	1.841399e-05	4.837125e-20	
3.257991e-01	2.220446e-16	1.323555e+00	0.000000e+00	0.000000e+00	-4.683447e+05	2.907851e-01	3.997137e-02	9.927987e-01	1.000000e-10	2.736648e+09	1.133015e+05	2.999189e+02	0.000000e+00	1.841399e-05	4.837124e-20	
3.357352e-01	2.220446e-16	1.323555e+00	0.000000e+00	0.000000e+00	-4.683447e+05	2.907851e-01	3.997137e-02	9.927987e-01	1.000000e-10	2.736648e+09	1.133015e+05	2.999189e+02	0.000000e+00	1.841399e-05	4.837124e-20	
3.459577e-01	2.220446e-16	1.323555e+00	0.000000e+00	0.000000e+00	-4.683447e+05	2.907851e-01	3.997137e-02	9.927987e-01	1.000000e-10	2.736648e+09	1.133015e+05	2.999189e+02	0.000000e+00	1.841399e-05	4.837124e-20	
3.564816e-01	2.220446e-16	1.323555e+00	0.000000e+00	0.000000e+00	-4.683447e+05	2.907851e-01	3.997137e-02	9.927987e-01	1.000000e-10	2.736648e+09	1.133015e+05	2.999189e+02	0.000000e+00	1.841399e-05	4.837124e-20	
3.673226e-01	2.220446e-16	1.323555e+00	0.000000e+00	0.000000e+00	-4.683447e+05	2.907851e-01	3.997137e-02	9.927987e-01	1.000000e-10	2.736648e+09	1.133015e+05	2.999189e+02	0.000000e+00	1.841399e-05	4.837124e-20	
3.784979e-01	2.220446e-16	1.323555e+00	0.000000e+00	0.000000e+00	-4.683447e+05	2.907851e-01	3.997137e-02	9.927987e-01	1.000000e-10	2.736648e+09	1.133015e+05	2.999189e+02	0.000000e+00	1.841399e-05	4.837124e-20	
3.900256e-01	2.220446e-16	1.323555e+00	0.000000e+00	0.000000e+00	-4.683447e+05	2.907851e-01	3.997136e-02	9.927987e-01	1.000000e-10	2.736648e+09	1.133015e+05	2.999189e+02	0.000000e+00	1.841399e-05	4.837124e-20	
4.019253e-01	2.220446e-16	1.323555e+00	0.000000e+00	0.000000e+00	-4.683447e+05	2.907851e-01	3.997136e-02	9.927987e-01	1.000000e-10	2.736648e+09	1.133015e+05	2.999189e+02	0.000000e+00	1.841399e-05	4.837124e-20	
4.142179e-01	2.220446e-16	1.323555e+00	0.000000e+00	0.000000e+00	-4.683447e+05	2.907851e-01	3.997136e-02	9.927987e-01	1.000000e-10	2.736648e+09	1.133015e+05	2.999189e+02	0.000000e+00	1.841399e-05	4.837124e-20	
4.269261e-01	2.220446e-16	1.323555e+00	0.000000e+00	0.000000e+00	-4.683447e+05	2.907851e-01	3.997136e-02	9.927987e-01	1.000000e-10	2.736648e+09	1.133015e+05	2.999189e+02	0.000000e+00	1.841399e-05	4.837123e-20	
4.400740e-01	2.220446e-16	1.323555e+00	0.000000e+00	0.000000e+00	-4.683447e+05	2.907851e-01	3.997136e-02	9.927987e-01	1.000000e-10	2.736649e+09	1.133015e+05	2.999189e+02	0.000000e+00	1.841399e-05	4.837123e-20	
4.536880e-01	2.220446e-16	1.323555e+00	0.000000e+00	0.000000e+00	-4.683447e+05	2.907851e-01	3.997136e-02	9.927987e-01	1.000000e-10	2.736649e+09	1.133015e+05	2.999189e+02	0.000000e+00	1.841399e-05	4.837123e-20	
4.677963e-01	2.220446e-16	1.323555e+00	0.000000e+00	0.000000e+00	-4.683447e+05	2.907851e-01	3.997136e-02	9.927987e-01	1.000000e-10	2.736649e+09	1.133015e+05	2.999189e+02	0.000000e+00	1.841399e-05	4.837123e-20	
4.824296e-01	2.220446e-16	1.323555e+00	0.000000e+00	0.000000e+00	-4.683447e+05	2.907851e-01	3.997136e-02	9.927987e-01	1.000000e-10	2.736649e+09	1.133015e+05	2.999189e+02	0.000000e+00	1.841399e-05	4.837123e-20	
4.976210e-01	2.220446e-16	1.323555e+00	0.000000e+00	0.000000e+00	-4.683447e+05	2.907851e-01	3.997136e-02	9.927987e-01	1.000000e-10	2.736649e+09	1.133015e+05	2.999189e+02	0.000000e+00	1.841399e-05	4.837123e-20	
5.134066e-01	2.220446e-16	1.323555e+00	0.000000e+00	0.000000e+00	-4.683447e+05	2.907851e-01	3.997136e-02	9.927987e-01	1.000000e-10	2.736649e+09	1.133015e+05	2.999189e+02	0.000000e+00	1.841399e-05	4.837123e-20	
5.298255e-01	2.220446e-16	1.323555e+00	0.000000e+00	0.000000e+00	-4.683447e+05	2.907851e-01	3.997136e-02	9.927987e-01	1.000000e-10	2.736649e+09	1.133015e+05	2.999189e+02	0.000000e+00	1.841399e-05	4.837123e-20	
5.469203e-01	2.220446e-16	1.323555e+00	0.000000e+00	0.000000e+00	-4.683447e+05	2.907851e-01	3.997136e-02	9.927987e-01	1.000000e-10	2.736649e+09	1.133015e+05	2.999189e+02	0.000000e+00	1.841399e-05	4.837123e-20	
5.647377e-01	2.220446e-16	1.323555e+00	0.000000e+00	0.000000e+00	-4.683447e+05	2.907850e-01	3.997136e-02	9.927987e-01	1.000000e-10	2.736649e+09	1.133015e+05	2.999189e+02	0.000000e+00	1.841399e-05	4.837123e-20	
5.833284e-01	2.220446e-16	1.323555e+00	0.000000e+00	0.000000e+00	-4.683447e+05	2.907850e-01	3.997136e-02	9.927987e-01	1.000000e-10	2.736649e+09	1.133015e+05	2.999189e+02	0.000000e+00	1.841399e-05	4.837123e-20	
6.027481e-01	2.220446e-16	1.323555e+00	0.000000e+00	0.000000e+00	-4.683447e+05	2.907850e-01	3.997136e-02	9.927987e-01	1.000000e-10	2.736649e+09	1.133015e+05	2.999189e+02	0.000000e+00	1.841399e-05	4.837123e-20	
6.230582e-01	2.220446e-16	1.323555e+00	0.000000e+00	0.000000e+00	-4.683447e+05	2.907850e-01	3.997136e-02	9.927987e-01	1.000000e-10	2.736649e+09	1.133015e+05	2.999189e+02	0.000000e+00	1.841399e-05	4.837122e-20	
6.443259e-01	2.220446e-16	1.323555e+00	0.000000e+00	0.000000e+00	-4.683447e+05	2.907850e-01	3.997136e-02	9.927986e-01	1.000000e-10	2.736649e+09	1.133015e+05	2.999189e+02	0.000000e+00	1.841399e-05	4.837122e-20	
6.666254e-01	2.220446e-16	1.323555e+00	0.000000e+00	0.000000e+00	-4.683447e+05	2.907850e-01	3.997136e-02	9.927986e-01	1.000000e-10	2.736649e+09	1.133015e+05	2.999189e+02	0.000000e+00	1.841399e-05	4.837122e-20	
6.900390e-01	2.220446e-16	1.323555e+00	0.000000e+00	0.000000e+00	-4.683447e+05	2.907850e-01	3.997136e-02	9.927986e-01	1.000000e-10	2.736649e+09	1.133015e+05	2.999189e+02	0.000000e+00	1.841399e-05	4.837122e-20	
7.146577e-01	2.220446e-16	1.323555e+00	0.000000e+00	0.000000e+00	-4.683447e+05	2.907850e-01	3.997136e-02	9.927986e-01	1.000000e-10	2.736649e+09	1.133015e+05	2.999189e+02	0.000000e+00	1.841399e-05	4.837122e-20	
7.405826e-01	2.220446e-16	1.323555e+00	0.000000e+00	0.000000e+00	-4.683447e+05	2.907850e-01	3.997136e-02	9.927986e-01	1.000000e-10	2.736649e+09	1.133015e+05	2.999189e+02	0.000000e+00	1.841399e-05	4.837122e-20	
7.679266e-01	2.220446e-16	1.323555e+00	0.000000e+00	0.000000e+00	-4.683447e+05	2.907850e-01	3.997136e-02	9.927986e-01	1.000000e-10	2.736649e+09	1.133015e+05	2.999189e+02	0.000000e+00	1.841399e-05	4.837122e-20	
7.968158e-01	2.220446e-16	1.323555e+00	0.000000e+00	0.000000e+00	-4.683447e+05	2.907850e-01	3.997136e-02	9.927986e-01	1.000000e-10	2.736649e+09	1.133015e+05	2.999189e+02	0.000000e+00	1.841399e-05	4.837122e-20	
8.273920e-01	2.220446e-16	1.323555e+00	0.000000e+00	0.000000e+00	-4.683447e+05	2.907850e-01	3.997136e-02	9.927986e-01	1.000000e-10	2.736649e+09	1.133015e+05	2.999189e+02	0.000000e+00	1.841399e-05	4.837122e-20	
8.598143e-01	2.220446e-16	1.323555e+00	0.000000e+00	0.000000e+00	-4.683447e+05	2.907850e-01	3.997136e-02	9.927986e-01	1.000000e-10	2.736649e+09	1.133015e+05	2.999189e+02	0.000000e+00	1.841399e-05	4.837122e-20	
8.942629e-01	2.220446e-16	1.323555e+00	0.000000e+00	0.000000e+00	-4.683447e+05	2.907850e-01	3.997136e-02	9.927986e-01	1.000000e-10	2.736649e+09	1.133015e+05	2.999189e+02	0.000000e+00	1.841399e-05	4.837122e-20	
9.309419e-01	2.220446e-16	1.323555e+00	0.000000e+00	0.000000e+00	-4.683447e+05	2.907850e-01	3.997136e-02	9.927986e-01	1.000000e-10	2.736649e+09	1.133015e+05	2.999189e+02	0.000000e+00	1.841399e-05	4.837122e-20	
9.700840e-01	2.220446e-16	1.323555e+00	0.000000e+00	0.000000e+00	-4.683447e+05	2.907850e-01	3.997136e-02	9.927986e-01	1.000000e-10	2.736649e+09	1.133015e+05	2.999189e+02	0.000000e+00	1.841399e-05	4.837122e-20	
1.011955e+00	2.220446e-16	1.323555e+00	0.000000e+00	0.000000e+00	-4.683447e+05	2.907850e-01	3.997136e-02	9.927986e-01	1.000000e-10	2.736649e+09	1.133015e+05	2.999189e+02	0.000000e+00	1.841399e-05	4.837122e-20	
1.054914e+00	2.220446e-16	1.323555e+00	0.000000e+00	0.000000e+00	-4.683447e+05	2.907850e-01	3.997136e-02	9.927986e-01	1.000000e-10	2.736649e+09	1.133015e+05	2.999189e+02	0.000000e+00	1.841399e-05	4.837122e-20	
1.097872e+00	2.220446e-16	1.323555e+00	0.000000e+00	0.000000e+00	-4.683447e+05	2.907850e-01	3.997136e-02	9.927986e-01	1.000000e-10	2.736649e+09	1.133015e+05	2.999189e+02	0.000000e+00	1.841399e-05	4.837122e-20	
1.140831e+00	2.220446e-16	1.323555e+00	0.000000e+00	0.000000e+00	-4.683447e+05	2.907850e-01	3.997136e-02	9.927986e-01	1.000000e-10	2.736649e+09	1.133015e+05	2.999189e+02	0.000000e+00	1.841399e-05	4.837122e-20	
1.183789e+00	2.220446e-16	1.323555e+00	0.000000e+00	0.000000e+00	-4.683447e+05	2.907850e-01	3.997136e-02	9.927986e-01	1.000000e-10	2.736649e+09	1.133015e+05	2.999189e+02	0.000000e+00	1.841399e-05	4.837122e-20	
1.226748e+00	2.220446e-16	1.323555e+00	0.000000e+00	0.000000e+00	-4.683447e+05	2.907850e-01	3.997136e-02	9.927986e-01	1.000000e-10	2.736649e+09	1.133015e+05	2.999189e+02	0.000000e+00	1.841399e-05	4.837122e-20	
1.269706e+00	2.220446e-16	1.323555e+00	0.000000e+00	0.000000e+00	-4.683447e+05	2.907850e-01	3.997136e-02	9.927986e-01	1.000000e-10	2.736649e+09	1.133015e+05	2.999189e+02	0.000000e+00	1.841399e-05	4.837122e-20	
1.312665e+00	2.220446e-16	1.323555e+00	0.000000e+00	0.000000e+00	-4.683447e+05	2.907850e-01	3.997136e-02	9.927986e-01	1.000000e-10	2.736649e+09	1.133015e+05	2.999189e+02	0.000000e+00	1.841399e-05	4.837122e-20	
1.355623e+00	2.220446e-16	1.323555e+00	0.000000e+00	0.000000e+00	-4.683447e+05	2.907850e-01	3.997136e-02	9.927986e-01	1.000000e-10	2.736649e+09	1.133015e+05	2.999189e+02	0.000000e+00	1.841399e-05	4.837122e-20	
1.398581e+00	2.220446e-16	1.323555e+00	0.000000e+00	0.000000e+00	-4.683447e+05	2.907850e-01	3.997136e-02	9.927986e-01	1.000000e-10	2.736649e+09	1.133015e+05	2.999189e+02	0.000000e+00	1.841399e-05	4.837122e-20	
1.441540e+00	2.220446e-16	1.323555e+00	0.000000e+00	0.000000e+00	-4.683447e+05	2.907850e-01	3.997136e-02	9.927986e-01	1.000000e-10	2.736649e+09	1.133015e+05	2.999189e+02	0.000000e+00	1.841399e-05	4.837122e-20	
1.484498e+00	2.220446e-16	1.323555e+00	0.000000e+00	0.000000e+00	-4.683447e+05	2.907850e-01	3.997136e-02	9.927986e-01	1.000000e-10	2.736649e+09	1.133015e+05	2.999189e+02	0.000000e+00	1.841399e-05	4.837122e-20	
1.527457e+00	2.220446e-16	1.323555e+00	0.000000e+00	0.000000e+00	-4.683447e+05	2.907850e-01	3.997136e-02	9.927986e-01	1.000000e-10	2.736649e+09	1.133015e+05	2.999189e+02	0.000000e+00	1.841399e-05	4.837122e-20	
1.570415e+00	2.220446e-16	1.323555e+00	0.000000e+00	0.000000e+00	-4.683447e+05	2.907850e-01	3.997136e-02	9.927986e-01	1.000000e-10	2.736649e+09	1.133015e+05	2.999189e+02	0.000000e+00	1.841399e-05	4.837122e-20	
1.613374e+00	2.220446e-16	1.323555e+00	0.000000e+00	0.000000e+00	-4.683447e+05	2.907850e-01	3.997136e-02	9.927986e-01	1.000000e-10	2.736649e+09	1.133015e+05	2.999189e+02	0.000000e+00	1.841399e-05	4.837122e-20	
1.656332e+00	2.220446e-16	1.323555e+00	0.000000e+00	0.000000e+00	-4.683447e+05	2.907850e-01	3.997136e-02	9.927986e-01	1.000000e-10	2.736649e+09	1.133015e+05	2.999189e+02	0.000000e+00	1.841399e-05	4.837122e-20	
1.699291e+00	2.220446e-16	1.323555e+00	0.000000e+00	0.000000e+00	-4.683447e+05	2.907850e-01	3.997136e-02	9.927986e-01	1.000000e-10	2.736649e+09	1.133015e+05	2.999189e+02	0.000000e+00	1.841399e-05	4.837122e-20	
1.742249e+00	2.220446e-16	1.323555e+00	0.000000e+00	0.000000e+00	-4.683447e+05	2.907850e-01	3.997136e-02	9.927986e-01	1.000000e-10	2.736649e+09	1.133015e+05	2.999189e+02	0.000000e+00	1.841399e-05	4.837122e-20	
1.785208e+00	2.220446e-16	1.323555e+00	0.000000e+00	0.000000e+00	-4.683447e+05	2.907850e-01	3.997136e-02	9.927986e-01	1.000000e-10	2.736649e+09	1.133015e+05	2.999189e+02	0.000000e+00	1.841399e-05	4.837122e-20	
1.828166e+00	2.220446e-16	1.323555e+00	0.000000e+00	0.000000e+00	-4.683447e+05	2.907850e-01	3.997136e-02	9.927986e-01	1.000000e-10	2.736649e+09	1.133015e+05	2.999189e+02	0.000000e+00	1.841399e-05	4.837122e-20	
1.871125e+00	2.220446e-16	1.323555e+00	0.000000e+00	0.000000e+00	-4.683447e+05	2.907850e-01	3.997136e-02	9.927986e-01	1.000000e-10	2.736649e+09	1.133015e+05	2.999189e+02	0.000000e+00	1.841399e-05	4.837122e-20	
1.914083e+00	2.220446e-16	1.323555e+00	0.000000e+00	0.000000e+00	-4.683447e+05	2.907850e-01	3.997136e-02	9.927986e-01	1.000000e-10	2.736649e+09	1.133015e+05	2.999189e+02	0.000000e+00	1.841399e-05	4.837122e-20	
1.957042e+00	2.220446e-16	1.323555e+00	0.000000e+00	0.000000e+00	-4.683447e+05	2.907850e-01	3.997136e-02	9.927986e-01	1.000000e-10	2.736649e+09	1.133015e+05	2.999189e+02	0.000000e+00	1.841399e-05	4.837122e-20	
2.000000e+00	2.220446e-16	1.323512e+00	0.000000e+00	0.000000e+00	-4.683332e+05	2.907756e-01	3.997007e-02	9.927665e-01	1.000000e-10	2.736709e+09	1.132964e+05	2.999150e+02	0.000000e+00	1.841380e-05	4.836867e-20	
1	2
2	3
3	4
4	5
5	6
6	7
7	8
8	9
9	10
10	11
11	12
12	13
13	14
14	15
15	16
16	17
17	18
18	19
19	20
20	21
21	22
22	23
23	24
24	25
25	26
26	27
27	28
28	29
29	30
30	31
31	32
32	33
33	34
34	35
35	36
36	37
37	38
38	39
39	40
40	41
41	42
42	43
43	44
44	45
45	46
46	47
47	48
48	49
49	50
50	51
51	52
52	53
53	54
54	55
55	56
56	57
57	58
58	59
59	60
60	61
61	62
62	63
63	64
64	65
65	66
66	67
67	68
68	69
69	70
70	71
71	72
72	73
73	74
74	75
75	76
76	77
77	78
78	79
79	80
80	81
81	82
82	83
83	84
84	85
85	86
86	87
87	88
88	89
89	90
90	91
91	92
92	93
93	94
94	95
95	96
96	97
97	98
98	99
99	100
100	101
101	102
102	103
103	104
104	105
105	106
106	107
107	108
108	109
109	110
110	111
111	112
112	113
