TITLE = "Visualization of the volumetric solution"
VARIABLES = "x""y""Conservative_1""Conservative_2""Conservative_3""Conservative_4""Conservative_5""Conservative_6""Conservative_7""Conservative_8""Conservative_9""Conservative_10""Conservative_11""Conservative_12""Conservative_13""Conservative_14""Conservative_15""Pressure""Temperature""Mach""Laminar_Viscosity""<greek>m</greek><sub>t</sub>"
ZONE NODES= 9000, ELEMENTS= 8811, DATAPACKING=POINT, ZONETYPE=FEQUADRILATERAL
0.000000e+00	0.000000e+00	1.380715e+00	0.000000e+00	0.000000e+00	-1.002009e+05	7.102147e-30	1.631439e-31	1.380715e+00	5.659411e-32	3.993159e-31	0.000000e+00	0.000000e+00	0.000000e+00	0.000000e+00	1.000000e-10	4.386964e+06	1.096317e+05	3.055845e+02	0.000000e+00	2.105222e-05	3.147168e-17	
1.250000e-01	0.000000e+00	9.691114e-01	0.000000e+00	0.000000e+00	1.986677e+06	7.735967e-01	1.125816e-03	1.919798e-01	1.263761e-03	1.145607e-03	0.000000e+00	0.000000e+00	0.000000e+00	0.000000e+00	1.000000e-10	6.432695e+06	1.058730e+05	6.231224e+02	0.000000e+00	1.919874e-05	9.946769e-18	
2.500000e-02	0.000000e+00	8.274180e-01	0.000000e+00	0.000000e+00	1.344079e+06	6.460392e-01	1.613100e-02	1.157153e-01	2.232460e-03	4.730006e-02	0.000000e+00	0.000000e+00	0.000000e+00	0.000000e+00	1.000000e-10	1.339629e+07	1.169283e+05	7.986034e+02	0.000000e+00	2.336765e-05	6.175560e-18	
7.500000e-02	0.000000e+00	1.482425e+00	0.000000e+00	0.000000e+00	4.033143e+06	1.449417e+00	1.875984e-06	3.300310e-02	3.346529e-06	1.594421e-07	0.000000e+00	0.000000e+00	0.000000e+00	0.000000e+00	1.000000e-10	4.150151e+06	1.650731e+05	7.134500e+02	0.000000e+00	1.839990e-05	3.571735e-17	
0.000000e+00	6.000000e-03	1.381157e+00	0.000000e+00	0.000000e+00	-1.001985e+05	1.288646e-59	3.118985e-76	1.381157e+00	5.863757e-76	9.647287e-97	0.000000e+00	0.000000e+00	0.000000e+00	0.000000e+00	1.000000e-10	4.386137e+06	1.096803e+05	3.056223e+02	0.000000e+00	2.105429e-05	3.148774e-17	
1.250000e-01	6.000000e-03	1.325831e+00	0.000000e+00	0.000000e+00	-9.077353e+04	8.379249e-10	3.268075e-24	1.325831e+00	1.354830e-24	1.659918e-24	0.000000e+00	0.000000e+00	0.000000e+00	0.000000e+00	1.000000e-10	4.560654e+06	1.074168e+05	3.118054e+02	0.000000e+00	2.138696e-05	1.752543e-17	
0.000000e+00	1.000000e-03	1.386055e+00	2.660891e+01	-8.750088e-01	-1.013910e+05	1.295204e-46	0.000000e+00	1.386055e+00	0.000000e+00	0.000000e+00	0.000000e+00	0.000000e+00	0.000000e+00	0.000000e+00	1.370770e-01	1.156345e+03	1.096386e+05	3.044265e+02	5.784216e-02	2.098811e-05	2.421441e-05	
1.250000e-01	1.000000e-03	2.452095e-01	9.706166e+01	6.653958e-01	3.486185e+05	1.325482e-01	2.084724e-02	2.357441e-02	2.444829e-04	6.799528e-02	0.000000e+00	0.000000e+00	0.000000e+00	0.000000e+00	9.876021e+01	3.585107e+05	1.055605e+05	2.152538e+03	5.815565e-01	5.491602e-05	5.305645e-05	
1.250000e-01	5.000000e-03	1.088788e+00	2.249173e+02	1.388949e+01	9.332727e+03	5.018652e-03	3.133253e-08	1.083769e+00	1.158084e-08	7.078082e-08	0.000000e+00	0.000000e+00	0.000000e+00	0.000000e+00	1.617411e+01	1.136181e+05	1.073861e+05	3.802967e+02	5.607142e-01	2.482982e-05	7.418803e-05	
0.000000e+00	5.000000e-03	1.386387e+00	2.658673e+01	7.436941e-01	-1.013866e+05	5.032624e-74	4.060154e-88	1.386387e+00	2.137503e-88	4.579220e-93	0.000000e+00	0.000000e+00	0.000000e+00	0.000000e+00	1.370768e-01	1.157785e+03	1.096764e+05	3.044586e+02	5.776850e-02	2.098990e-05	2.382000e-05	
0.000000e+00	5.263158e-05	1.383549e+00	2.149303e+01	5.684073e-01	-1.008208e+05	1.517855e-31	5.649579e-33	1.383549e+00	1.704336e-33	1.043332e-32	0.000000e+00	0.000000e+00	0.000000e+00	0.000000e+00	6.978524e-02	6.518383e+05	1.096276e+05	3.049473e+02	4.675794e-02	2.101708e-05	1.481081e-07	
0.000000e+00	1.052632e-04	1.384303e+00	2.522959e+01	6.953830e-01	-1.009689e+05	3.983430e-33	2.086381e-34	1.384303e+00	5.662959e-35	3.123137e-34	0.000000e+00	0.000000e+00	0.000000e+00	0.000000e+00	9.377552e-02	1.772139e+05	1.096258e+05	3.047763e+02	5.487361e-02	2.100759e-05	7.324618e-07	
0.000000e+00	1.578947e-04	1.384524e+00	2.631780e+01	6.828899e-01	-1.010122e+05	9.734710e-35	7.016481e-36	1.384524e+00	1.720254e-36	8.588480e-36	0.000000e+00	0.000000e+00	0.000000e+00	0.000000e+00	1.136202e-01	5.824835e+04	1.096246e+05	3.047244e+02	5.723359e-02	2.100470e-05	2.700435e-06	
0.000000e+00	2.105263e-04	1.384597e+00	2.671247e+01	6.124165e-01	-1.010265e+05	2.081724e-36	2.072345e-37	1.384597e+00	4.571716e-38	2.059130e-37	0.000000e+00	0.000000e+00	0.000000e+00	0.000000e+00	1.259339e-01	2.051430e+04	1.096239e+05	3.047063e+02	5.808622e-02	2.100370e-05	8.499029e-06	
0.000000e+00	2.631579e-04	1.384621e+00	2.686493e+01	5.181349e-01	-1.010313e+05	3.888083e-38	5.309209e-39	1.384621e+00	1.045471e-39	4.214974e-39	0.000000e+00	0.000000e+00	0.000000e+00	0.000000e+00	1.322292e-01	7.772574e+03	1.096234e+05	3.046997e+02	5.841287e-02	2.100333e-05	2.355338e-05	
0.000000e+00	3.157895e-04	1.384627e+00	2.691892e+01	4.142777e-01	-1.010326e+05	9.510514e-40	1.173469e-40	1.384627e+00	2.039672e-41	7.278184e-41	0.000000e+00	0.000000e+00	0.000000e+00	0.000000e+00	1.352256e-01	3.510949e+03	1.096232e+05	3.046978e+02	5.852624e-02	2.100322e-05	5.332514e-05	
0.000000e+00	3.684211e-04	1.384627e+00	2.693332e+01	3.081217e-01	-1.010323e+05	1.414198e-40	2.229660e-42	1.384627e+00	3.372030e-43	1.049194e-42	0.000000e+00	0.000000e+00	0.000000e+00	0.000000e+00	1.367118e-01	2.027912e+03	1.096232e+05	3.046978e+02	5.855443e-02	2.100323e-05	5.807999e-05	
0.000000e+00	4.210526e-04	1.384626e+00	2.693050e+01	2.006004e-01	-1.010315e+05	4.732930e-41	3.628136e-44	1.384626e+00	4.687919e-45	1.247202e-44	0.000000e+00	0.000000e+00	0.000000e+00	0.000000e+00	1.374430e-01	1.471120e+03	1.096234e+05	3.046986e+02	5.854606e-02	2.100327e-05	5.520336e-05	
0.000000e+00	4.736842e-04	1.384626e+00	2.691991e+01	9.363792e-02	-1.010307e+05	1.621937e-41	5.029776e-46	1.384626e+00	5.423373e-47	1.201560e-46	0.000000e+00	0.000000e+00	0.000000e+00	0.000000e+00	1.377486e-01	1.257976e+03	1.096238e+05	3.046997e+02	5.852166e-02	2.100333e-05	5.440169e-05	
0.000000e+00	5.263158e-04	1.384628e+00	2.690634e+01	-1.234884e-02	-1.010300e+05	5.416741e-42	5.891319e-48	1.384628e+00	5.136893e-49	9.129127e-49	0.000000e+00	0.000000e+00	0.000000e+00	0.000000e+00	1.378217e-01	1.176860e+03	1.096244e+05	3.047010e+02	5.849162e-02	2.100340e-05	5.466151e-05	
0.000000e+00	5.789474e-04	1.384632e+00	2.689171e+01	-1.170206e-01	-1.010294e+05	1.770191e-42	6.390699e-50	1.384632e+00	4.442927e-51	6.232992e-51	0.000000e+00	0.000000e+00	0.000000e+00	0.000000e+00	1.377821e-01	1.145403e+03	1.096252e+05	3.047022e+02	5.846006e-02	2.100347e-05	5.547697e-05	
0.000000e+00	6.315789e-04	1.384638e+00	2.687704e+01	-2.202345e-01	-1.010290e+05	5.712616e-43	6.706773e-52	1.384638e+00	3.700674e-53	4.086591e-53	0.000000e+00	0.000000e+00	0.000000e+00	0.000000e+00	1.376913e-01	1.132199e+03	1.096262e+05	3.047035e+02	5.842919e-02	2.100355e-05	5.658376e-05	
0.000000e+00	6.842105e-04	1.384647e+00	2.686301e+01	-3.220977e-01	-1.010287e+05	1.818154e-43	6.837452e-54	1.384647e+00	2.979418e-55	2.581308e-55	0.000000e+00	0.000000e+00	0.000000e+00	0.000000e+00	1.375807e-01	1.125555e+03	1.096273e+05	3.047048e+02	5.840045e-02	2.100362e-05	5.785533e-05	
0.000000e+00	7.368421e-04	1.384658e+00	2.685006e+01	-4.226606e-01	-1.010286e+05	5.713053e-44	6.797895e-56	1.384658e+00	2.328613e-57	1.575803e-57	0.000000e+00	0.000000e+00	0.000000e+00	0.000000e+00	1.374659e-01	1.121352e+03	1.096287e+05	3.047061e+02	5.837475e-02	2.100369e-05	5.922333e-05	
0.000000e+00	7.894737e-04	1.384672e+00	2.683840e+01	-5.220160e-01	-1.010288e+05	1.774987e-44	6.613393e-58	1.384672e+00	1.824466e-59	9.315719e-60	0.000000e+00	0.000000e+00	0.000000e+00	0.000000e+00	1.373568e-01	1.118240e+03	1.096302e+05	3.047072e+02	5.835251e-02	2.100375e-05	6.051378e-05	
0.000000e+00	8.421053e-04	1.384692e+00	2.682770e+01	-6.203069e-01	-1.010301e+05	5.461458e-45	6.401603e-60	1.384692e+00	3.085076e-61	5.340518e-62	0.000000e+00	0.000000e+00	0.000000e+00	0.000000e+00	1.372614e-01	1.116288e+03	1.096319e+05	3.047075e+02	5.833293e-02	2.100377e-05	6.111328e-05	
0.000000e+00	8.947368e-04	1.384735e+00	2.681337e+01	-7.165021e-01	-1.010373e+05	1.667131e-45	9.022800e-62	1.384735e+00	5.593910e-62	2.971696e-64	0.000000e+00	0.000000e+00	0.000000e+00	0.000000e+00	1.372649e-01	1.120659e+03	1.096338e+05	3.047034e+02	5.830557e-02	2.100354e-05	5.338813e-05	
0.000000e+00	9.473684e-04	1.384922e+00	2.676732e+01	-8.152138e-01	-1.010843e+05	5.034292e-46	1.009384e-62	1.384922e+00	1.683554e-62	3.418238e-66	0.000000e+00	0.000000e+00	0.000000e+00	0.000000e+00	1.371716e-01	1.142954e+03	1.096358e+05	3.046678e+02	5.820709e-02	2.100156e-05	3.029011e-05	
0.000000e+00	1.078431e-03	1.387104e+00	2.646346e+01	-8.676396e-01	-1.016731e+05	2.408189e-47	4.710820e-61	1.387104e+00	7.083541e-62	1.412910e-61	0.000000e+00	0.000000e+00	0.000000e+00	0.000000e+00	1.365865e-01	1.127125e+03	1.096419e+05	3.042055e+02	5.750268e-02	2.097575e-05	3.064857e-05	
0.000000e+00	1.156863e-03	1.387201e+00	2.644794e+01	-8.387306e-01	-1.016925e+05	4.809193e-48	1.815350e-60	1.387201e+00	2.451060e-61	4.347039e-61	0.000000e+00	0.000000e+00	0.000000e+00	0.000000e+00	1.360934e-01	1.113119e+03	1.096448e+05	3.041923e+02	5.746419e-02	2.097501e-05	3.413794e-05	
0.000000e+00	1.235294e-03	1.387237e+00	2.644536e+01	-8.118152e-01	-1.016954e+05	9.729057e-49	1.710060e-60	1.387237e+00	2.214068e-61	3.655322e-61	0.000000e+00	0.000000e+00	0.000000e+00	0.000000e+00	1.360194e-01	1.111979e+03	1.096476e+05	3.041921e+02	5.745527e-02	2.097500e-05	3.432917e-05	
0.000000e+00	1.313725e-03	1.387268e+00	2.644357e+01	-7.840389e-01	-1.016970e+05	1.947707e-49	1.065564e-60	1.387268e+00	1.357033e-61	2.129353e-61	0.000000e+00	0.000000e+00	0.000000e+00	0.000000e+00	1.359703e-01	1.111909e+03	1.096503e+05	3.041929e+02	5.744824e-02	2.097505e-05	3.414103e-05	
0.000000e+00	1.392157e-03	1.387296e+00	2.644176e+01	-7.560164e-01	-1.016983e+05	3.842838e-50	5.509867e-61	1.387296e+00	7.002469e-62	1.055416e-61	0.000000e+00	0.000000e+00	0.000000e+00	0.000000e+00	1.359345e-01	1.111975e+03	1.096529e+05	3.041939e+02	5.744128e-02	2.097510e-05	3.399547e-05	
0.000000e+00	1.470588e-03	1.387323e+00	2.643999e+01	-7.276412e-01	-1.016995e+05	7.467205e-51	2.570749e-61	1.387323e+00	3.286605e-62	4.779471e-62	0.000000e+00	0.000000e+00	0.000000e+00	0.000000e+00	1.359021e-01	1.112078e+03	1.096554e+05	3.041948e+02	5.743449e-02	2.097515e-05	3.385337e-05	
0.000000e+00	1.549020e-03	1.387350e+00	2.643827e+01	-6.989321e-01	-1.017007e+05	1.427962e-51	1.121555e-61	1.387350e+00	1.448705e-62	2.035648e-62	0.000000e+00	0.000000e+00	0.000000e+00	0.000000e+00	1.358726e-01	1.112206e+03	1.096578e+05	3.041956e+02	5.742791e-02	2.097520e-05	3.372233e-05	
0.000000e+00	1.627451e-03	1.387375e+00	2.643661e+01	-6.698912e-01	-1.017019e+05	2.684296e-52	4.650765e-62	1.387375e+00	6.083033e-63	8.259810e-63	0.000000e+00	0.000000e+00	0.000000e+00	0.000000e+00	1.358459e-01	1.112347e+03	1.096600e+05	3.041964e+02	5.742157e-02	2.097524e-05	3.360024e-05	
0.000000e+00	1.705882e-03	1.387399e+00	2.643502e+01	-6.405245e-01	-1.017029e+05	4.953181e-53	1.846953e-62	1.387399e+00	2.448414e-63	3.211355e-63	0.000000e+00	0.000000e+00	0.000000e+00	0.000000e+00	1.358222e-01	1.112494e+03	1.096622e+05	3.041972e+02	5.741547e-02	2.097529e-05	3.348669e-05	
0.000000e+00	1.784314e-03	1.387422e+00	2.643350e+01	-6.108384e-01	-1.017040e+05	8.957906e-54	7.048448e-63	1.387422e+00	9.470159e-64	1.199454e-63	0.000000e+00	0.000000e+00	0.000000e+00	0.000000e+00	1.358015e-01	1.112640e+03	1.096643e+05	3.041980e+02	5.740963e-02	2.097533e-05	3.338108e-05	
0.000000e+00	1.862745e-03	1.387444e+00	2.643205e+01	-5.808404e-01	-1.017049e+05	1.585288e-54	2.588878e-63	1.387444e+00	3.523260e-64	4.309210e-64	0.000000e+00	0.000000e+00	0.000000e+00	0.000000e+00	1.357837e-01	1.112784e+03	1.096663e+05	3.041988e+02	5.740404e-02	2.097537e-05	3.328282e-05	
0.000000e+00	1.941176e-03	1.387465e+00	2.643067e+01	-5.505381e-01	-1.017059e+05	2.740967e-55	9.159462e-64	1.387465e+00	1.261571e-64	1.490321e-64	0.000000e+00	0.000000e+00	0.000000e+00	0.000000e+00	1.357685e-01	1.112923e+03	1.096682e+05	3.041995e+02	5.739870e-02	2.097541e-05	3.319137e-05	
0.000000e+00	2.019608e-03	1.387485e+00	2.642936e+01	-5.199397e-01	-1.017067e+05	4.623016e-56	3.123886e-64	1.387485e+00	4.350895e-65	4.966191e-65	0.000000e+00	0.000000e+00	0.000000e+00	0.000000e+00	1.357555e-01	1.113056e+03	1.096701e+05	3.042002e+02	5.739362e-02	2.097545e-05	3.310617e-05	
0.000000e+00	2.098039e-03	1.387503e+00	2.642812e+01	-4.890538e-01	-1.017075e+05	7.595186e-57	1.028036e-64	1.387503e+00	1.446593e-65	1.596339e-65	0.000000e+00	0.000000e+00	0.000000e+00	0.000000e+00	1.357445e-01	1.113183e+03	1.096718e+05	3.042009e+02	5.738880e-02	2.097549e-05	3.302676e-05	
0.000000e+00	2.176471e-03	1.387521e+00	2.642694e+01	-4.578892e-01	-1.017082e+05	1.213953e-57	3.268122e-65	1.387521e+00	4.642203e-66	4.955942e-66	0.000000e+00	0.000000e+00	0.000000e+00	0.000000e+00	1.357352e-01	1.113301e+03	1.096735e+05	3.042016e+02	5.738423e-02	2.097553e-05	3.295270e-05	
0.000000e+00	2.254902e-03	1.387538e+00	2.642583e+01	-4.264548e-01	-1.017089e+05	1.886681e-58	1.004864e-65	1.387538e+00	1.439796e-66	1.488084e-66	0.000000e+00	0.000000e+00	0.000000e+00	0.000000e+00	1.357272e-01	1.113411e+03	1.096751e+05	3.042022e+02	5.737991e-02	2.097557e-05	3.288361e-05	
0.000000e+00	2.333333e-03	1.387554e+00	2.642478e+01	-3.947597e-01	-1.017095e+05	2.857771e-59	2.992684e-66	1.387554e+00	4.322218e-67	4.328133e-67	0.000000e+00	0.000000e+00	0.000000e+00	0.000000e+00	1.357205e-01	1.113512e+03	1.096766e+05	3.042029e+02	5.737585e-02	2.097560e-05	3.281916e-05	
0.000000e+00	2.411765e-03	1.387569e+00	2.642380e+01	-3.628133e-01	-1.017101e+05	4.273496e-60	8.645112e-67	1.387569e+00	1.257602e-67	1.221093e-67	0.000000e+00	0.000000e+00	0.000000e+00	0.000000e+00	1.357148e-01	1.113603e+03	1.096780e+05	3.042035e+02	5.737203e-02	2.097564e-05	3.275907e-05	
0.000000e+00	2.490196e-03	1.387583e+00	2.642287e+01	-3.306250e-01	-1.017105e+05	6.634413e-61	2.424778e-67	1.387583e+00	3.549999e-68	3.344912e-68	0.000000e+00	0.000000e+00	0.000000e+00	0.000000e+00	1.357100e-01	1.113684e+03	1.096793e+05	3.042042e+02	5.736846e-02	2.097568e-05	3.270310e-05	
0.000000e+00	2.568627e-03	1.387596e+00	2.642200e+01	-2.982043e-01	-1.017110e+05	1.239139e-61	6.608032e-68	1.387596e+00	9.728623e-69	8.902741e-69	0.000000e+00	0.000000e+00	0.000000e+00	0.000000e+00	1.357060e-01	1.113754e+03	1.096806e+05	3.042048e+02	5.736514e-02	2.097571e-05	3.265103e-05	
0.000000e+00	2.647059e-03	1.387608e+00	2.642119e+01	-2.655610e-01	-1.017113e+05	3.447198e-62	1.750827e-68	1.387608e+00	2.589893e-69	2.303803e-69	0.000000e+00	0.000000e+00	0.000000e+00	0.000000e+00	1.357026e-01	1.113812e+03	1.096817e+05	3.042054e+02	5.736207e-02	2.097575e-05	3.260272e-05	
0.000000e+00	2.725490e-03	1.387620e+00	2.642043e+01	-2.327047e-01	-1.017116e+05	1.410621e-62	4.512572e-69	1.387620e+00	6.701198e-70	5.799411e-70	0.000000e+00	0.000000e+00	0.000000e+00	0.000000e+00	1.357000e-01	1.113854e+03	1.096828e+05	3.042060e+02	5.735924e-02	2.097578e-05	3.255803e-05	
0.000000e+00	2.803922e-03	1.387630e+00	2.641973e+01	-1.996456e-01	-1.017118e+05	6.880213e-63	1.131861e-69	1.387630e+00	1.685895e-70	1.420688e-70	0.000000e+00	0.000000e+00	0.000000e+00	0.000000e+00	1.356978e-01	1.113878e+03	1.096839e+05	3.042066e+02	5.735666e-02	2.097582e-05	3.251686e-05	
0.000000e+00	2.882353e-03	1.387639e+00	2.641909e+01	-1.663937e-01	-1.017119e+05	3.511983e-63	2.763471e-70	1.387639e+00	4.124912e-71	3.387436e-71	0.000000e+00	0.000000e+00	0.000000e+00	0.000000e+00	1.356962e-01	1.113878e+03	1.096848e+05	3.042073e+02	5.735432e-02	2.097585e-05	3.247918e-05	
0.000000e+00	2.960784e-03	1.387647e+00	2.641850e+01	-1.329592e-01	-1.017120e+05	1.798634e-63	6.568212e-71	1.387647e+00	9.816163e-72	7.861668e-72	0.000000e+00	0.000000e+00	0.000000e+00	0.000000e+00	1.356951e-01	1.113851e+03	1.096857e+05	3.042079e+02	5.735224e-02	2.097588e-05	3.244500e-05	
0.000000e+00	3.039216e-03	1.387654e+00	2.641797e+01	-9.935281e-02	-1.017120e+05	9.139459e-64	1.519664e-71	1.387654e+00	2.271934e-72	1.775757e-72	0.000000e+00	0.000000e+00	0.000000e+00	0.000000e+00	1.356945e-01	1.113863e+03	1.096865e+05	3.042085e+02	5.735040e-02	2.097592e-05	3.241409e-05	
0.000000e+00	3.117647e-03	1.387660e+00	2.641749e+01	-6.558513e-02	-1.017119e+05	4.593596e-64	3.422041e-72	1.387660e+00	5.113497e-73	3.902874e-73	0.000000e+00	0.000000e+00	0.000000e+00	0.000000e+00	1.356944e-01	1.113911e+03	1.096872e+05	3.042091e+02	5.734882e-02	2.097595e-05	3.238645e-05	
0.000000e+00	3.196078e-03	1.387666e+00	2.641706e+01	-3.166683e-02	-1.017118e+05	2.281065e-64	7.498077e-73	1.387666e+00	1.118959e-73	8.344215e-74	0.000000e+00	0.000000e+00	0.000000e+00	0.000000e+00	1.356947e-01	1.113933e+03	1.096878e+05	3.042096e+02	5.734749e-02	2.097598e-05	3.236157e-05	
0.000000e+00	3.274510e-03	1.387670e+00	2.641669e+01	2.401428e-03	-1.017115e+05	1.117993e-64	1.597542e-73	1.387670e+00	2.379099e-74	1.734107e-74	0.000000e+00	0.000000e+00	0.000000e+00	0.000000e+00	1.356956e-01	1.113932e+03	1.096883e+05	3.042102e+02	5.734641e-02	2.097602e-05	3.234024e-05	
0.000000e+00	3.352941e-03	1.387673e+00	2.641637e+01	3.659845e-02	-1.017112e+05	5.407484e-65	3.312331e-74	1.387673e+00	4.919447e-75	3.506483e-75	0.000000e+00	0.000000e+00	0.000000e+00	0.000000e+00	1.356972e-01	1.113911e+03	1.096888e+05	3.042108e+02	5.734559e-02	2.097605e-05	3.232397e-05	
0.000000e+00	3.431373e-03	1.387675e+00	2.641612e+01	7.090400e-02	-1.017109e+05	2.580279e-65	6.690697e-75	1.387675e+00	9.902713e-76	6.904003e-76	0.000000e+00	0.000000e+00	0.000000e+00	0.000000e+00	1.356993e-01	1.113875e+03	1.096892e+05	3.042114e+02	5.734504e-02	2.097608e-05	3.231136e-05	
0.000000e+00	3.509804e-03	1.387677e+00	2.641592e+01	1.053165e-01	-1.017104e+05	1.213675e-65	1.314755e-75	1.387677e+00	1.937962e-76	1.321733e-76	0.000000e+00	0.000000e+00	0.000000e+00	0.000000e+00	1.357021e-01	1.113827e+03	1.096895e+05	3.042120e+02	5.734476e-02	2.097611e-05	3.230195e-05	
0.000000e+00	3.588235e-03	1.387677e+00	2.641578e+01	1.398234e-01	-1.017099e+05	5.621919e-66	2.511561e-76	1.387677e+00	3.684722e-77	2.458287e-77	0.000000e+00	0.000000e+00	0.000000e+00	0.000000e+00	1.357057e-01	1.113766e+03	1.096897e+05	3.042125e+02	5.734475e-02	2.097615e-05	3.229666e-05	
0.000000e+00	3.666667e-03	1.387676e+00	2.641571e+01	1.744130e-01	-1.017094e+05	2.562831e-66	4.662707e-77	1.387676e+00	6.806219e-78	4.440640e-78	0.000000e+00	0.000000e+00	0.000000e+00	0.000000e+00	1.357102e-01	1.113696e+03	1.096899e+05	3.042131e+02	5.734503e-02	2.097618e-05	3.229565e-05	
0.000000e+00	3.745098e-03	1.387674e+00	2.641570e+01	2.090732e-01	-1.017087e+05	1.148648e-66	8.409073e-78	1.387674e+00	1.221337e-78	7.785465e-79	0.000000e+00	0.000000e+00	0.000000e+00	0.000000e+00	1.357157e-01	1.113616e+03	1.096899e+05	3.042136e+02	5.734558e-02	2.097621e-05	3.229918e-05	
0.000000e+00	3.823529e-03	1.387671e+00	2.641576e+01	2.437916e-01	-1.017080e+05	5.059628e-67	1.472891e-78	1.387671e+00	2.130945e-79	1.324016e-79	0.000000e+00	0.000000e+00	0.000000e+00	0.000000e+00	1.357225e-01	1.113526e+03	1.096899e+05	3.042142e+02	5.734643e-02	2.097624e-05	3.230754e-05	
0.000000e+00	3.901961e-03	1.387667e+00	2.641588e+01	2.785558e-01	-1.017072e+05	2.188988e-67	2.506483e-79	1.387667e+00	3.626619e-80	2.182834e-80	0.000000e+00	0.000000e+00	0.000000e+00	0.000000e+00	1.357307e-01	1.113427e+03	1.096897e+05	3.042147e+02	5.734756e-02	2.097627e-05	3.232106e-05	
0.000000e+00	3.980392e-03	1.387662e+00	2.641608e+01	3.133532e-01	-1.017064e+05	9.290069e-68	4.150781e-80	1.387662e+00	6.074304e-81	3.486205e-81	0.000000e+00	0.000000e+00	0.000000e+00	0.000000e+00	1.357405e-01	1.113320e+03	1.096895e+05	3.042152e+02	5.734900e-02	2.097629e-05	3.234012e-05	
0.000000e+00	4.058824e-03	1.387655e+00	2.641634e+01	3.481710e-01	-1.017054e+05	3.863409e-68	6.725764e-81	1.387655e+00	1.024995e-81	5.391477e-82	0.000000e+00	0.000000e+00	0.000000e+00	0.000000e+00	1.357523e-01	1.113206e+03	1.096892e+05	3.042157e+02	5.735074e-02	2.097632e-05	3.236512e-05	
0.000000e+00	4.137255e-03	1.387648e+00	2.641668e+01	3.829963e-01	-1.017044e+05	1.572988e-68	1.082532e-81	1.387648e+00	1.835971e-82	8.071269e-83	0.000000e+00	0.000000e+00	0.000000e+00	0.000000e+00	1.357664e-01	1.113085e+03	1.096887e+05	3.042162e+02	5.735279e-02	2.097635e-05	3.239654e-05	
0.000000e+00	4.215686e-03	1.387639e+00	2.641709e+01	4.178162e-01	-1.017034e+05	6.265980e-69	1.794958e-82	1.387639e+00	3.801400e-83	1.168869e-83	0.000000e+00	0.000000e+00	0.000000e+00	0.000000e+00	1.357830e-01	1.112959e+03	1.096882e+05	3.042166e+02	5.735514e-02	2.097637e-05	3.243487e-05	
0.000000e+00	4.294118e-03	1.387629e+00	2.641758e+01	4.526180e-01	-1.017023e+05	2.440014e-69	3.295783e-83	1.387629e+00	9.737819e-84	1.636137e-84	0.000000e+00	0.000000e+00	0.000000e+00	0.000000e+00	1.358025e-01	1.112830e+03	1.096876e+05	3.042170e+02	5.735780e-02	2.097640e-05	3.248063e-05	
0.000000e+00	4.372549e-03	1.387618e+00	2.641813e+01	4.873890e-01	-1.017011e+05	9.277492e-70	7.328156e-84	1.387618e+00	3.012862e-84	2.211940e-85	0.000000e+00	0.000000e+00	0.000000e+00	0.000000e+00	1.358250e-01	1.112700e+03	1.096869e+05	3.042174e+02	5.736078e-02	2.097642e-05	3.253435e-05	
0.000000e+00	4.450980e-03	1.387606e+00	2.641876e+01	5.221169e-01	-1.016998e+05	3.440127e-70	2.023719e-84	1.387606e+00	1.032995e-84	2.886366e-86	0.000000e+00	0.000000e+00	0.000000e+00	0.000000e+00	1.358504e-01	1.112575e+03	1.096860e+05	3.042177e+02	5.736405e-02	2.097644e-05	3.259656e-05	
0.000000e+00	4.529412e-03	1.387593e+00	2.641945e+01	5.567894e-01	-1.016985e+05	1.242412e-70	6.472817e-85	1.387593e+00	3.657777e-85	3.633183e-87	0.000000e+00	0.000000e+00	0.000000e+00	0.000000e+00	1.358785e-01	1.112464e+03	1.096850e+05	3.042181e+02	5.736763e-02	2.097645e-05	3.266762e-05	
0.000000e+00	4.607843e-03	1.387578e+00	2.642021e+01	5.913981e-01	-1.016971e+05	4.363568e-71	2.198687e-85	1.387578e+00	1.289776e-85	4.407560e-88	0.000000e+00	0.000000e+00	0.000000e+00	0.000000e+00	1.359095e-01	1.112378e+03	1.096840e+05	3.042184e+02	5.737149e-02	2.097647e-05	3.274954e-05	
0.000000e+00	4.686275e-03	1.387561e+00	2.642100e+01	6.259158e-01	-1.016956e+05	1.487942e-71	7.526057e-86	1.387561e+00	4.457478e-86	5.147474e-89	0.000000e+00	0.000000e+00	0.000000e+00	0.000000e+00	1.359439e-01	1.112326e+03	1.096828e+05	3.042186e+02	5.737558e-02	2.097649e-05	3.283450e-05	
0.000000e+00	4.764706e-03	1.387543e+00	2.642177e+01	6.604499e-01	-1.016939e+05	4.918365e-72	2.535159e-86	1.387543e+00	1.499616e-86	5.780321e-90	0.000000e+00	0.000000e+00	0.000000e+00	0.000000e+00	1.359920e-01	1.112411e+03	1.096814e+05	3.042190e+02	5.737981e-02	2.097650e-05	3.296585e-05	
0.000000e+00	4.843137e-03	1.387518e+00	2.642334e+01	6.943156e-01	-1.016908e+05	1.572445e-72	8.355754e-87	1.387518e+00	4.909442e-87	6.226796e-91	0.000000e+00	0.000000e+00	0.000000e+00	0.000000e+00	1.360645e-01	1.113560e+03	1.096800e+05	3.042203e+02	5.738600e-02	2.097658e-05	3.274174e-05	
0.000000e+00	4.921569e-03	1.387433e+00	2.643807e+01	7.308101e-01	-1.016712e+05	4.089512e-73	2.434495e-87	1.387433e+00	1.388287e-87	6.273543e-92	0.000000e+00	0.000000e+00	0.000000e+00	0.000000e+00	1.365696e-01	1.127768e+03	1.096784e+05	3.042346e+02	5.742230e-02	2.097738e-05	2.977427e-05	
0.000000e+00	5.052632e-03	1.385260e+00	2.674864e+01	6.883927e-01	-1.010786e+05	4.279716e-75	4.737369e-89	1.385260e+00	2.299961e-89	2.973150e-94	0.000000e+00	0.000000e+00	0.000000e+00	0.000000e+00	1.371639e-01	1.143503e+03	1.096748e+05	3.047017e+02	5.814142e-02	2.100345e-05	3.040301e-05	
0.000000e+00	5.105263e-03	1.385087e+00	2.679426e+01	5.958344e-01	-1.010327e+05	2.646746e-76	3.871718e-90	1.385087e+00	1.745558e-90	1.504788e-95	0.000000e+00	0.000000e+00	0.000000e+00	0.000000e+00	1.372465e-01	1.120301e+03	1.096738e+05	3.047372e+02	5.823966e-02	2.100542e-05	5.683905e-05	
0.000000e+00	5.157895e-03	1.385054e+00	2.680788e+01	5.059623e-01	-1.010256e+05	1.339836e-77	2.669737e-91	1.385054e+00	1.109934e-91	6.671396e-97	0.000000e+00	0.000000e+00	0.000000e+00	0.000000e+00	1.372406e-01	1.115872e+03	1.096729e+05	3.047420e+02	5.826618e-02	2.100569e-05	6.611426e-05	
0.000000e+00	5.210526e-03	1.385042e+00	2.681791e+01	4.141524e-01	-1.010241e+05	4.711325e-79	1.543117e-92	1.385042e+00	5.875491e-93	2.556996e-98	0.000000e+00	0.000000e+00	0.000000e+00	0.000000e+00	1.373342e-01	1.117779e+03	1.096722e+05	3.047425e+02	5.828500e-02	2.100571e-05	6.563843e-05	
0.000000e+00	5.263158e-03	1.385036e+00	2.682889e+01	3.214457e-01	-1.010237e+05	0.000000e+00	7.281311e-94	1.385036e+00	2.394953e-94	8.321246e-100	0.000000e+00	0.000000e+00	0.000000e+00	0.000000e+00	1.374413e-01	1.120850e+03	1.096716e+05	3.047422e+02	5.830641e-02	2.100570e-05	6.430024e-05	
0.000000e+00	5.315789e-03	1.385032e+00	2.684116e+01	2.276954e-01	-1.010236e+05	0.000000e+00	1.124296e-95	1.385032e+00	0.000000e+00	2.278877e-101	0.000000e+00	0.000000e+00	0.000000e+00	0.000000e+00	1.375536e-01	1.125040e+03	1.096711e+05	3.047418e+02	5.833119e-02	2.100567e-05	6.286135e-05	
0.000000e+00	5.368421e-03	1.385029e+00	2.685449e+01	1.328094e-01	-1.010237e+05	0.000000e+00	0.000000e+00	1.385029e+00	0.000000e+00	5.226367e-103	0.000000e+00	0.000000e+00	0.000000e+00	0.000000e+00	1.376615e-01	1.131760e+03	1.096707e+05	3.047412e+02	5.835892e-02	2.100564e-05	6.151906e-05	
0.000000e+00	5.421053e-03	1.385029e+00	2.686844e+01	3.670366e-02	-1.010240e+05	0.000000e+00	0.000000e+00	1.385029e+00	0.000000e+00	1.003044e-104	0.000000e+00	0.000000e+00	0.000000e+00	0.000000e+00	1.377485e-01	1.145295e+03	1.096705e+05	3.047406e+02	5.838866e-02	2.100561e-05	6.034914e-05	
0.000000e+00	5.473684e-03	1.385030e+00	2.688232e+01	-6.077635e-02	-1.010243e+05	0.000000e+00	4.910208e-93	1.385030e+00	1.695971e-93	1.621559e-106	0.000000e+00	0.000000e+00	0.000000e+00	0.000000e+00	1.377813e-01	1.177680e+03	1.096703e+05	3.047400e+02	5.841893e-02	2.100557e-05	5.960241e-05	
0.000000e+00	5.526316e-03	1.385032e+00	2.689506e+01	-1.592068e-01	-1.010248e+05	6.167590e-76	5.574768e-91	1.385032e+00	3.458486e-91	2.305424e-108	0.000000e+00	0.000000e+00	0.000000e+00	0.000000e+00	1.376995e-01	1.260841e+03	1.096703e+05	3.047394e+02	5.844742e-02	2.100554e-05	5.949157e-05	
0.000000e+00	5.578947e-03	1.385036e+00	2.690474e+01	-2.586332e-01	-1.010254e+05	9.611599e-74	4.276781e-89	1.385036e+00	3.169718e-89	5.523446e-110	0.000000e+00	0.000000e+00	0.000000e+00	0.000000e+00	1.373825e-01	1.478471e+03	1.096704e+05	3.047389e+02	5.847003e-02	2.100551e-05	6.066398e-05	
0.000000e+00	5.631579e-03	1.385041e+00	2.690645e+01	-3.583450e-01	-1.010259e+05	1.002656e-71	2.788555e-87	1.385041e+00	2.389469e-87	2.228661e-108	0.000000e+00	0.000000e+00	0.000000e+00	0.000000e+00	1.366397e-01	2.043317e+03	1.096706e+05	3.047386e+02	5.847609e-02	2.100549e-05	6.431127e-05	
0.000000e+00	5.684211e-03	1.385043e+00	2.689081e+01	-4.567576e-01	-1.010259e+05	8.468330e-70	1.568637e-85	1.385043e+00	1.530222e-85	1.555725e-106	0.000000e+00	0.000000e+00	0.000000e+00	0.000000e+00	1.351330e-01	3.544635e+03	1.096710e+05	3.047391e+02	5.844517e-02	2.100552e-05	5.279835e-05	
0.000000e+00	5.736842e-03	1.385039e+00	2.683487e+01	-5.526896e-01	-1.010244e+05	5.914465e-68	7.631163e-84	1.385039e+00	8.372520e-84	9.212924e-105	0.000000e+00	0.000000e+00	0.000000e+00	0.000000e+00	1.321093e-01	7.853605e+03	1.096716e+05	3.047416e+02	5.832750e-02	2.100566e-05	2.329642e-05	
0.000000e+00	5.789474e-03	1.385016e+00	2.667938e+01	-6.387521e-01	-1.010192e+05	3.455575e-66	3.213432e-82	1.385016e+00	3.926726e-82	4.651867e-103	0.000000e+00	0.000000e+00	0.000000e+00	0.000000e+00	1.257539e-01	2.068189e+04	1.096723e+05	3.047486e+02	5.799416e-02	2.100605e-05	8.420708e-06	
0.000000e+00	5.842105e-03	1.384943e+00	2.628011e+01	-7.008503e-01	-1.010046e+05	1.708540e-64	1.173146e-80	1.384943e+00	1.585040e-80	2.014960e-101	0.000000e+00	0.000000e+00	0.000000e+00	0.000000e+00	1.133580e-01	5.854597e+04	1.096732e+05	3.047672e+02	5.713150e-02	2.100708e-05	2.681332e-06	
0.000000e+00	5.894737e-03	1.384721e+00	2.518439e+01	-7.051023e-01	-1.009609e+05	7.289111e-63	3.737747e-79	1.384721e+00	5.562095e-79	7.584590e-100	0.000000e+00	0.000000e+00	0.000000e+00	0.000000e+00	9.343503e-02	1.776326e+05	1.096744e+05	3.048195e+02	5.475564e-02	2.100999e-05	7.283053e-07	
0.000000e+00	5.947368e-03	1.383969e+00	2.143839e+01	-5.701759e-01	-1.008130e+05	2.832099e-61	1.068812e-77	1.383969e+00	1.757464e-77	2.586184e-98	0.000000e+00	0.000000e+00	0.000000e+00	0.000000e+00	6.934889e-02	6.521649e+05	1.096763e+05	3.049904e+02	4.662191e-02	2.101947e-05	1.471535e-07	
1.262626e-03	6.000000e-03	1.379525e+00	0.000000e+00	0.000000e+00	-9.971972e+04	1.699121e-56	4.338544e-73	1.379525e+00	8.140540e-73	1.396780e-93	0.000000e+00	0.000000e+00	0.000000e+00	0.000000e+00	1.000000e-10	4.422483e+06	1.096927e+05	3.060184e+02	0.000000e+00	2.107596e-05	3.119226e-17	
2.525253e-03	6.000000e-03	1.381350e+00	0.000000e+00	0.000000e+00	-9.977451e+04	4.928894e-54	1.317677e-70	1.381350e+00	2.470235e-70	4.395401e-91	0.000000e+00	0.000000e+00	0.000000e+00	0.000000e+00	1.000000e-10	4.421074e+06	1.098682e+05	3.061031e+02	0.000000e+00	2.108057e-05	3.124354e-17	
3.787879e-03	6.000000e-03	1.383591e+00	0.000000e+00	0.000000e+00	-9.983197e+04	1.062571e-51	2.991138e-68	1.383591e+00	5.604074e-68	1.039389e-88	0.000000e+00	0.000000e+00	0.000000e+00	0.000000e+00	1.000000e-10	4.415640e+06	1.100875e+05	3.062175e+02	0.000000e+00	2.108680e-05	3.133281e-17	
5.050505e-03	6.000000e-03	1.386164e+00	0.000000e+00	0.000000e+00	-9.989756e+04	1.106710e-49	3.242277e-66	1.386164e+00	6.064535e-66	1.169544e-86	0.000000e+00	0.000000e+00	0.000000e+00	0.000000e+00	1.000000e-10	4.409165e+06	1.103395e+05	3.063487e+02	0.000000e+00	2.109394e-05	3.143725e-17	
6.313131e-03	6.000000e-03	1.388952e+00	0.000000e+00	0.000000e+00	-9.997452e+04	7.012279e-48	2.139614e-64	1.388952e+00	3.990684e-64	8.004484e-85	0.000000e+00	0.000000e+00	0.000000e+00	0.000000e+00	1.000000e-10	4.402316e+06	1.106103e+05	3.064841e+02	0.000000e+00	2.110129e-05	3.154960e-17	
7.575758e-03	6.000000e-03	1.391855e+00	0.000000e+00	0.000000e+00	-1.000629e+05	3.185614e-46	1.015774e-62	1.391855e+00	1.887841e-62	3.949076e-83	0.000000e+00	0.000000e+00	0.000000e+00	0.000000e+00	1.000000e-10	4.395579e+06	1.108890e+05	3.066154e+02	0.000000e+00	2.110841e-05	3.166408e-17	