TITLE = "Visualization of the volumetric solution"
VARIABLES = "x""y""Conservative_1""Conservative_2""Conservative_3""Conservative_4""Conservative_5""Conservative_6""Conservative_7""Conservative_8""Conservative_9""Conservative_10""Conservative_11""Conservative_12""Conservative_13""Conservative_14""Conservative_15""Pressure""Temperature""Mach""Laminar_Viscosity""<greek>m</greek><sub>t</sub>"
ZONE NODES= 9000, ELEMENTS= 8811, DATAPACKING=POINT, ZONETYPE=FEQUADRILATERAL
0.000000e+00	0.000000e+00	1.304056e+00	0.000000e+00	0.000000e+00	-9.928255e+04	7.442988e-38	0.000000e+00	1.304056e+00	0.000000e+00	0.000000e+00	0.000000e+00	0.000000e+00	0.000000e+00	0.000000e+00	1.000000e-10	4.593032e+06	1.017135e+05	3.001801e+02	0.000000e+00	2.074991e-05	2.839205e-17	
1.250000e-01	0.000000e+00	9.603671e-01	0.000000e+00	0.000000e+00	1.948168e+06	7.624233e-01	0.000000e+00	1.979438e-01	0.000000e+00	0.000000e+00	0.000000e+00	0.000000e+00	0.000000e+00	0.000000e+00	1.000000e-10	6.000374e+06	1.013295e+05	6.009046e+02	0.000000e+00	1.871367e-05	1.600512e-17	
2.500000e-02	0.000000e+00	9.357463e-01	0.000000e+00	0.000000e+00	1.584982e+06	6.278532e-01	0.000000e+00	3.078931e-01	0.000000e+00	0.000000e+00	0.000000e+00	0.000000e+00	0.000000e+00	0.000000e+00	1.000000e-10	6.615328e+06	1.016876e+05	5.760953e+02	0.000000e+00	2.004126e-05	1.414512e-17	
7.500000e-02	0.000000e+00	9.356901e-01	0.000000e+00	0.000000e+00	2.535786e+06	9.247872e-01	0.000000e+00	1.090291e-02	0.000000e+00	0.000000e+00	0.000000e+00	0.000000e+00	0.000000e+00	0.000000e+00	1.000000e-10	6.190650e+06	1.011314e+05	6.975260e+02	0.000000e+00	1.789268e-05	1.511457e-17	
0.000000e+00	6.000000e-03	1.304054e+00	0.000000e+00	0.000000e+00	-9.928282e+04	0.000000e+00	0.000000e+00	1.304054e+00	0.000000e+00	0.000000e+00	0.000000e+00	0.000000e+00	0.000000e+00	0.000000e+00	1.000000e-10	4.593049e+06	1.017131e+05	3.001795e+02	0.000000e+00	2.074989e-05	2.839189e-17	
1.250000e-01	6.000000e-03	1.299644e+00	0.000000e+00	0.000000e+00	-9.905264e+04	1.172195e-09	0.000000e+00	1.299644e+00	0.000000e+00	0.000000e+00	0.000000e+00	0.000000e+00	0.000000e+00	0.000000e+00	1.000000e-10	4.620711e+06	1.013276e+05	3.000562e+02	0.000000e+00	2.074309e-05	2.812650e-17	
0.000000e+00	1.000000e-03	1.304386e+00	2.632107e+01	4.154611e-01	-9.918148e+04	2.451044e-46	0.000000e+00	1.304386e+00	0.000000e+00	0.000000e+00	0.000000e+00	0.000000e+00	0.000000e+00	0.000000e+00	1.364626e-01	1.098410e+03	1.016841e+05	3.000175e+02	6.120858e-02	2.074096e-05	8.717420e-05	
1.250000e-01	1.000000e-03	8.000067e-01	2.456727e+01	-5.597641e-02	1.324431e+06	4.843651e-01	0.000000e+00	3.156420e-01	0.000000e+00	0.000000e+00	0.000000e+00	0.000000e+00	0.000000e+00	0.000000e+00	1.274078e+01	1.666596e+04	1.013232e+05	6.475606e+02	8.164116e-02	2.324361e-05	6.115888e-04	
1.250000e-01	5.000000e-03	1.214449e+00	4.526654e+01	-7.571706e-02	-7.481780e+04	7.475735e-06	0.000000e+00	1.214442e+00	0.000000e+00	0.000000e+00	0.000000e+00	0.000000e+00	0.000000e+00	0.000000e+00	3.821444e+00	2.216957e+04	1.013250e+05	3.210982e+02	1.093639e-01	2.188722e-05	2.093386e-04	
0.000000e+00	5.000000e-03	1.304385e+00	2.632208e+01	-4.164518e-01	-9.918136e+04	0.000000e+00	0.000000e+00	1.304385e+00	0.000000e+00	0.000000e+00	0.000000e+00	0.000000e+00	0.000000e+00	0.000000e+00	1.364680e-01	1.098433e+03	1.016841e+05	3.000175e+02	6.121100e-02	2.074096e-05	8.734372e-05	
0.000000e+00	5.263158e-05	1.304381e+00	2.085076e+01	7.338199e-01	-9.922182e+04	3.944233e-38	0.000000e+00	1.304381e+00	0.000000e+00	0.000000e+00	0.000000e+00	0.000000e+00	0.000000e+00	0.000000e+00	6.726732e-02	6.965424e+05	1.017067e+05	3.000852e+02	4.850637e-02	2.074469e-05	1.259682e-07	
0.000000e+00	1.052632e-04	1.304552e+00	2.474028e+01	8.886064e-01	-9.920557e+04	1.750595e-38	0.000000e+00	1.304552e+00	0.000000e+00	0.000000e+00	0.000000e+00	0.000000e+00	0.000000e+00	0.000000e+00	9.265850e-02	1.939371e+05	1.017047e+05	3.000400e+02	5.755302e-02	2.074220e-05	6.232833e-07	
0.000000e+00	1.578947e-04	1.304590e+00	2.587761e+01	9.421512e-01	-9.919930e+04	7.421282e-39	0.000000e+00	1.304590e+00	0.000000e+00	0.000000e+00	0.000000e+00	0.000000e+00	0.000000e+00	0.000000e+00	1.124159e-01	6.409888e+04	1.017025e+05	3.000250e+02	6.019955e-02	2.074137e-05	2.287973e-06	
0.000000e+00	2.105263e-04	1.304592e+00	2.628960e+01	9.354058e-01	-9.919616e+04	3.044383e-39	0.000000e+00	1.304592e+00	0.000000e+00	0.000000e+00	0.000000e+00	0.000000e+00	0.000000e+00	0.000000e+00	1.248885e-01	2.281780e+04	1.017008e+05	3.000192e+02	6.115660e-02	2.074106e-05	7.140411e-06	
0.000000e+00	2.631579e-04	1.304581e+00	2.644965e+01	9.065749e-01	-9.919407e+04	1.211519e-39	0.000000e+00	1.304581e+00	0.000000e+00	0.000000e+00	0.000000e+00	0.000000e+00	0.000000e+00	0.000000e+00	1.313611e-01	8.706765e+03	1.016991e+05	3.000169e+02	6.152687e-02	2.074093e-05	1.968253e-05	
0.000000e+00	3.157895e-04	1.304565e+00	2.650644e+01	8.680110e-01	-9.919240e+04	4.682935e-40	0.000000e+00	1.304565e+00	0.000000e+00	0.000000e+00	0.000000e+00	0.000000e+00	0.000000e+00	0.000000e+00	1.344806e-01	3.868747e+03	1.016976e+05	3.000161e+02	6.165668e-02	2.074089e-05	4.534765e-05	
0.000000e+00	3.684211e-04	1.304547e+00	2.652011e+01	8.269173e-01	-9.919090e+04	1.760319e-40	0.000000e+00	1.304547e+00	0.000000e+00	0.000000e+00	0.000000e+00	0.000000e+00	0.000000e+00	0.000000e+00	1.360631e-01	2.175327e+03	1.016962e+05	3.000160e+02	6.168625e-02	2.074088e-05	6.713058e-05	
0.000000e+00	4.210526e-04	1.304529e+00	2.651553e+01	7.852984e-01	-9.918955e+04	6.443574e-41	0.000000e+00	1.304529e+00	0.000000e+00	0.000000e+00	0.000000e+00	0.000000e+00	0.000000e+00	0.000000e+00	1.368313e-01	1.530363e+03	1.016948e+05	3.000161e+02	6.167348e-02	2.074089e-05	6.194873e-05	
0.000000e+00	4.736842e-04	1.304512e+00	2.650172e+01	7.441174e-01	-9.918830e+04	2.300030e-41	0.000000e+00	1.304512e+00	0.000000e+00	0.000000e+00	0.000000e+00	0.000000e+00	0.000000e+00	0.000000e+00	1.371723e-01	1.273604e+03	1.016936e+05	3.000164e+02	6.163943e-02	2.074090e-05	6.046235e-05	
0.000000e+00	5.263158e-04	1.304495e+00	2.648430e+01	7.043561e-01	-9.918713e+04	8.017211e-42	0.000000e+00	1.304495e+00	0.000000e+00	0.000000e+00	0.000000e+00	0.000000e+00	0.000000e+00	0.000000e+00	1.372585e-01	1.173425e+03	1.016924e+05	3.000167e+02	6.159716e-02	2.074092e-05	6.119839e-05	
0.000000e+00	5.789474e-04	1.304479e+00	2.646536e+01	6.661432e-01	-9.918603e+04	2.732854e-42	0.000000e+00	1.304479e+00	0.000000e+00	0.000000e+00	0.000000e+00	0.000000e+00	0.000000e+00	0.000000e+00	1.372184e-01	1.134171e+03	1.016912e+05	3.000170e+02	6.155157e-02	2.074094e-05	6.282025e-05	
0.000000e+00	6.315789e-04	1.304464e+00	2.644566e+01	6.296010e-01	-9.918498e+04	9.123872e-43	0.000000e+00	1.304464e+00	0.000000e+00	0.000000e+00	0.000000e+00	0.000000e+00	0.000000e+00	0.000000e+00	1.371190e-01	1.118046e+03	1.016902e+05	3.000174e+02	6.150439e-02	2.074095e-05	6.511659e-05	
0.000000e+00	6.842105e-04	1.304450e+00	2.642599e+01	5.948064e-01	-9.918399e+04	2.988512e-43	0.000000e+00	1.304450e+00	0.000000e+00	0.000000e+00	0.000000e+00	0.000000e+00	0.000000e+00	0.000000e+00	1.369927e-01	1.110564e+03	1.016892e+05	3.000177e+02	6.145744e-02	2.074097e-05	6.804111e-05	
0.000000e+00	7.368421e-04	1.304436e+00	2.640683e+01	5.617495e-01	-9.918305e+04	9.621706e-44	0.000000e+00	1.304436e+00	0.000000e+00	0.000000e+00	0.000000e+00	0.000000e+00	0.000000e+00	0.000000e+00	1.368576e-01	1.106345e+03	1.016882e+05	3.000181e+02	6.141183e-02	2.074099e-05	7.142664e-05	
0.000000e+00	7.894737e-04	1.304423e+00	2.638838e+01	5.303818e-01	-9.918215e+04	3.050875e-44	0.000000e+00	1.304423e+00	0.000000e+00	0.000000e+00	0.000000e+00	0.000000e+00	0.000000e+00	0.000000e+00	1.367245e-01	1.103444e+03	1.016873e+05	3.000184e+02	6.136802e-02	2.074101e-05	7.515412e-05	
0.000000e+00	8.421053e-04	1.304411e+00	2.637069e+01	5.006497e-01	-9.918131e+04	9.546702e-45	0.000000e+00	1.304411e+00	0.000000e+00	0.000000e+00	0.000000e+00	0.000000e+00	0.000000e+00	0.000000e+00	1.366032e-01	1.101200e+03	1.016865e+05	3.000187e+02	6.132609e-02	2.074103e-05	7.916128e-05	
0.000000e+00	8.947368e-04	1.304399e+00	2.635383e+01	4.724272e-01	-9.918061e+04	2.954312e-45	0.000000e+00	1.304399e+00	0.000000e+00	0.000000e+00	0.000000e+00	0.000000e+00	0.000000e+00	0.000000e+00	1.365079e-01	1.099474e+03	1.016857e+05	3.000189e+02	6.128618e-02	2.074104e-05	8.406338e-05	
0.000000e+00	9.473684e-04	1.304390e+00	2.633752e+01	4.465653e-01	-9.918036e+04	9.054870e-46	0.000000e+00	1.304390e+00	0.000000e+00	0.000000e+00	0.000000e+00	0.000000e+00	0.000000e+00	0.000000e+00	1.365389e-01	1.099572e+03	1.016849e+05	3.000188e+02	6.124766e-02	2.074103e-05	8.318839e-05	
0.000000e+00	1.078431e-03	1.304380e+00	2.630044e+01	3.792930e-01	-9.918266e+04	5.075262e-47	0.000000e+00	1.304380e+00	0.000000e+00	0.000000e+00	0.000000e+00	0.000000e+00	0.000000e+00	0.000000e+00	1.361270e-01	1.094216e+03	1.016832e+05	3.000161e+02	6.115976e-02	2.074088e-05	1.025719e-04	
0.000000e+00	1.156863e-03	1.304368e+00	2.628167e+01	3.483338e-01	-9.918224e+04	1.026640e-47	0.000000e+00	1.304368e+00	0.000000e+00	0.000000e+00	0.000000e+00	0.000000e+00	0.000000e+00	0.000000e+00	1.358936e-01	1.091568e+03	1.016823e+05	3.000160e+02	6.111566e-02	2.074088e-05	1.135115e-04	
0.000000e+00	1.235294e-03	1.304357e+00	2.626462e+01	3.194299e-01	-9.918152e+04	2.036765e-48	0.000000e+00	1.304357e+00	0.000000e+00	0.000000e+00	0.000000e+00	0.000000e+00	0.000000e+00	0.000000e+00	1.357484e-01	1.090022e+03	1.016814e+05	3.000162e+02	6.107569e-02	2.074089e-05	1.227981e-04	
0.000000e+00	1.313725e-03	1.304346e+00	2.624912e+01	2.927754e-01	-9.918079e+04	3.973990e-49	0.000000e+00	1.304346e+00	0.000000e+00	0.000000e+00	0.000000e+00	0.000000e+00	0.000000e+00	0.000000e+00	1.356286e-01	1.088821e+03	1.016807e+05	3.000165e+02	6.103940e-02	2.074091e-05	1.330191e-04	
0.000000e+00	1.392157e-03	1.304336e+00	2.623500e+01	2.681334e-01	-9.918011e+04	7.637384e-50	0.000000e+00	1.304336e+00	0.000000e+00	0.000000e+00	0.000000e+00	0.000000e+00	0.000000e+00	0.000000e+00	1.355236e-01	1.087839e+03	1.016800e+05	3.000168e+02	6.100639e-02	2.074092e-05	1.438124e-04	
0.000000e+00	1.470588e-03	1.304327e+00	2.622213e+01	2.453549e-01	-9.917948e+04	1.446364e-50	0.000000e+00	1.304327e+00	0.000000e+00	0.000000e+00	0.000000e+00	0.000000e+00	0.000000e+00	0.000000e+00	1.354274e-01	1.087019e+03	1.016794e+05	3.000170e+02	6.097635e-02	2.074093e-05	1.553852e-04	
0.000000e+00	1.549020e-03	1.304319e+00	2.621046e+01	2.242972e-01	-9.917892e+04	2.697833e-51	0.000000e+00	1.304319e+00	0.000000e+00	0.000000e+00	0.000000e+00	0.000000e+00	0.000000e+00	0.000000e+00	1.353337e-01	1.086363e+03	1.016788e+05	3.000172e+02	6.094914e-02	2.074094e-05	1.624855e-04	
0.000000e+00	1.627451e-03	1.304311e+00	2.619984e+01	2.047532e-01	-9.917840e+04	4.950616e-52	0.000000e+00	1.304311e+00	0.000000e+00	0.000000e+00	0.000000e+00	0.000000e+00	0.000000e+00	0.000000e+00	1.352410e-01	1.085846e+03	1.016783e+05	3.000174e+02	6.092441e-02	2.074095e-05	1.624506e-04	
0.000000e+00	1.705882e-03	1.304305e+00	2.619016e+01	1.865837e-01	-9.917793e+04	8.923518e-53	0.000000e+00	1.304305e+00	0.000000e+00	0.000000e+00	0.000000e+00	0.000000e+00	0.000000e+00	0.000000e+00	1.351557e-01	1.085404e+03	1.016778e+05	3.000175e+02	6.090190e-02	2.074096e-05	1.624133e-04	
0.000000e+00	1.784314e-03	1.304298e+00	2.618139e+01	1.696927e-01	-9.917750e+04	1.577192e-53	0.000000e+00	1.304298e+00	0.000000e+00	0.000000e+00	0.000000e+00	0.000000e+00	0.000000e+00	0.000000e+00	1.350795e-01	1.085018e+03	1.016774e+05	3.000177e+02	6.088152e-02	2.074097e-05	1.623788e-04	
0.000000e+00	1.862745e-03	1.304293e+00	2.617347e+01	1.539577e-01	-9.917711e+04	2.728450e-54	0.000000e+00	1.304293e+00	0.000000e+00	0.000000e+00	0.000000e+00	0.000000e+00	0.000000e+00	0.000000e+00	1.350129e-01	1.084682e+03	1.016770e+05	3.000178e+02	6.086311e-02	2.074098e-05	1.623482e-04	
0.000000e+00	1.941176e-03	1.304288e+00	2.616633e+01	1.392686e-01	-9.917676e+04	4.611536e-55	0.000000e+00	1.304288e+00	0.000000e+00	0.000000e+00	0.000000e+00	0.000000e+00	0.000000e+00	0.000000e+00	1.349549e-01	1.084390e+03	1.016766e+05	3.000179e+02	6.084655e-02	2.074099e-05	1.623216e-04	
0.000000e+00	2.019608e-03	1.304283e+00	2.615992e+01	1.255223e-01	-9.917644e+04	7.601632e-56	0.000000e+00	1.304283e+00	0.000000e+00	0.000000e+00	0.000000e+00	0.000000e+00	0.000000e+00	0.000000e+00	1.349047e-01	1.084137e+03	1.016763e+05	3.000181e+02	6.083168e-02	2.074099e-05	1.622986e-04	
0.000000e+00	2.098039e-03	1.304279e+00	2.615418e+01	1.126226e-01	-9.917616e+04	1.219980e-56	0.000000e+00	1.304279e+00	0.000000e+00	0.000000e+00	0.000000e+00	0.000000e+00	0.000000e+00	0.000000e+00	1.348614e-01	1.083917e+03	1.016760e+05	3.000182e+02	6.081840e-02	2.074100e-05	1.622788e-04	
0.000000e+00	2.176471e-03	1.304275e+00	2.614908e+01	1.004798e-01	-9.917590e+04	1.903056e-57	0.000000e+00	1.304275e+00	0.000000e+00	0.000000e+00	0.000000e+00	0.000000e+00	0.000000e+00	0.000000e+00	1.348240e-01	1.083727e+03	1.016757e+05	3.000182e+02	6.080658e-02	2.074100e-05	1.622618e-04	
0.000000e+00	2.254902e-03	1.304272e+00	2.614457e+01	8.900994e-02	-9.917567e+04	2.880581e-58	0.000000e+00	1.304272e+00	0.000000e+00	0.000000e+00	0.000000e+00	0.000000e+00	0.000000e+00	0.000000e+00	1.347919e-01	1.083564e+03	1.016755e+05	3.000183e+02	6.079614e-02	2.074101e-05	1.622472e-04	
0.000000e+00	2.333333e-03	1.304269e+00	2.614061e+01	7.813391e-02	-9.917547e+04	4.223921e-59	0.000000e+00	1.304269e+00	0.000000e+00	0.000000e+00	0.000000e+00	0.000000e+00	0.000000e+00	0.000000e+00	1.347644e-01	1.083423e+03	1.016753e+05	3.000184e+02	6.078698e-02	2.074101e-05	1.622348e-04	
0.000000e+00	2.411765e-03	1.304266e+00	2.613717e+01	6.777729e-02	-9.917529e+04	5.990046e-60	0.000000e+00	1.304266e+00	0.000000e+00	0.000000e+00	0.000000e+00	0.000000e+00	0.000000e+00	0.000000e+00	1.347411e-01	1.083304e+03	1.016751e+05	3.000184e+02	6.077903e-02	2.074101e-05	1.622243e-04	
0.000000e+00	2.490196e-03	1.304264e+00	2.613423e+01	5.786958e-02	-9.917514e+04	8.201256e-61	0.000000e+00	1.304264e+00	0.000000e+00	0.000000e+00	0.000000e+00	0.000000e+00	0.000000e+00	0.000000e+00	1.347215e-01	1.083204e+03	1.016750e+05	3.000185e+02	6.077222e-02	2.074102e-05	1.622155e-04	
0.000000e+00	2.568627e-03	1.304262e+00	2.613175e+01	4.834373e-02	-9.917501e+04	1.082183e-61	0.000000e+00	1.304262e+00	0.000000e+00	0.000000e+00	0.000000e+00	0.000000e+00	0.000000e+00	0.000000e+00	1.347054e-01	1.083121e+03	1.016748e+05	3.000185e+02	6.076650e-02	2.074102e-05	1.622083e-04	
0.000000e+00	2.647059e-03	1.304261e+00	2.612972e+01	3.913562e-02	-9.917491e+04	1.373702e-62	0.000000e+00	1.304261e+00	0.000000e+00	0.000000e+00	0.000000e+00	0.000000e+00	0.000000e+00	0.000000e+00	1.346923e-01	1.083053e+03	1.016747e+05	3.000186e+02	6.076181e-02	2.074102e-05	1.622025e-04	
0.000000e+00	2.725490e-03	1.304259e+00	2.612812e+01	3.018359e-02	-9.917482e+04	1.674220e-63	0.000000e+00	1.304259e+00	0.000000e+00	0.000000e+00	0.000000e+00	0.000000e+00	0.000000e+00	0.000000e+00	1.346821e-01	1.083000e+03	1.016746e+05	3.000186e+02	6.075812e-02	2.074102e-05	1.621980e-04	
0.000000e+00	2.803922e-03	1.304259e+00	2.612694e+01	2.142795e-02	-9.917476e+04	1.955047e-64	0.000000e+00	1.304259e+00	0.000000e+00	0.000000e+00	0.000000e+00	0.000000e+00	0.000000e+00	0.000000e+00	1.346747e-01	1.082961e+03	1.016746e+05	3.000186e+02	6.075540e-02	2.074102e-05	1.621948e-04	
0.000000e+00	2.882353e-03	1.304258e+00	2.612617e+01	1.281052e-02	-9.917471e+04	2.182455e-65	0.000000e+00	1.304258e+00	0.000000e+00	0.000000e+00	0.000000e+00	0.000000e+00	0.000000e+00	0.000000e+00	1.346698e-01	1.082935e+03	1.016745e+05	3.000186e+02	6.075362e-02	2.074103e-05	1.621928e-04	
0.000000e+00	2.960784e-03	1.304258e+00	2.612580e+01	4.274435e-03	-9.917469e+04	2.323263e-66	0.000000e+00	1.304258e+00	0.000000e+00	0.000000e+00	0.000000e+00	0.000000e+00	0.000000e+00	0.000000e+00	1.346675e-01	1.082921e+03	1.016745e+05	3.000187e+02	6.075276e-02	2.074103e-05	1.621919e-04	
0.000000e+00	3.039216e-03	1.304258e+00	2.612583e+01	-4.238667e-03	-9.917469e+04	2.346020e-67	0.000000e+00	1.304258e+00	0.000000e+00	0.000000e+00	0.000000e+00	0.000000e+00	0.000000e+00	0.000000e+00	1.346676e-01	1.082922e+03	1.016745e+05	3.000187e+02	6.075283e-02	2.074103e-05	1.621920e-04	
0.000000e+00	3.117647e-03	1.304258e+00	2.612626e+01	-1.278184e-02	-9.917471e+04	2.292155e-68	0.000000e+00	1.304258e+00	0.000000e+00	0.000000e+00	0.000000e+00	0.000000e+00	0.000000e+00	0.000000e+00	1.346702e-01	1.082936e+03	1.016745e+05	3.000186e+02	6.075382e-02	2.074103e-05	1.621930e-04	
0.000000e+00	3.196078e-03	1.304259e+00	2.612709e+01	-2.141338e-02	-9.917475e+04	2.194673e-69	0.000000e+00	1.304259e+00	0.000000e+00	0.000000e+00	0.000000e+00	0.000000e+00	0.000000e+00	0.000000e+00	1.346754e-01	1.082964e+03	1.016746e+05	3.000186e+02	6.075574e-02	2.074102e-05	1.621951e-04	
0.000000e+00	3.274510e-03	1.304259e+00	2.612833e+01	-3.019012e-02	-9.917481e+04	2.074772e-70	0.000000e+00	1.304259e+00	0.000000e+00	0.000000e+00	0.000000e+00	0.000000e+00	0.000000e+00	0.000000e+00	1.346831e-01	1.083004e+03	1.016746e+05	3.000186e+02	6.075861e-02	2.074102e-05	1.621985e-04	
0.000000e+00	3.352941e-03	1.304261e+00	2.612999e+01	-3.917011e-02	-9.917489e+04	1.944233e-71	0.000000e+00	1.304261e+00	0.000000e+00	0.000000e+00	0.000000e+00	0.000000e+00	0.000000e+00	0.000000e+00	1.346935e-01	1.083058e+03	1.016747e+05	3.000186e+02	6.076244e-02	2.074102e-05	1.622031e-04	
0.000000e+00	3.431373e-03	1.304262e+00	2.613208e+01	-4.841287e-02	-9.917499e+04	1.809874e-72	0.000000e+00	1.304262e+00	0.000000e+00	0.000000e+00	0.000000e+00	0.000000e+00	0.000000e+00	0.000000e+00	1.347069e-01	1.083127e+03	1.016748e+05	3.000186e+02	6.076727e-02	2.074102e-05	1.622091e-04	
0.000000e+00	3.509804e-03	1.304264e+00	2.613461e+01	-5.797987e-02	-9.917511e+04	1.675804e-73	0.000000e+00	1.304264e+00	0.000000e+00	0.000000e+00	0.000000e+00	0.000000e+00	0.000000e+00	0.000000e+00	1.347234e-01	1.083212e+03	1.016750e+05	3.000185e+02	6.077313e-02	2.074102e-05	1.622165e-04	
0.000000e+00	3.588235e-03	1.304266e+00	2.613762e+01	-6.793495e-02	-9.917526e+04	1.544580e-74	0.000000e+00	1.304266e+00	0.000000e+00	0.000000e+00	0.000000e+00	0.000000e+00	0.000000e+00	0.000000e+00	1.347433e-01	1.083314e+03	1.016751e+05	3.000185e+02	6.078008e-02	2.074102e-05	1.622255e-04	
0.000000e+00	3.666667e-03	1.304269e+00	2.614112e+01	-7.834483e-02	-9.917544e+04	1.417810e-75	0.000000e+00	1.304269e+00	0.000000e+00	0.000000e+00	0.000000e+00	0.000000e+00	0.000000e+00	0.000000e+00	1.347670e-01	1.083435e+03	1.016753e+05	3.000184e+02	6.078818e-02	2.074101e-05	1.622362e-04	
0.000000e+00	3.745098e-03	1.304272e+00	2.614514e+01	-8.927959e-02	-9.917563e+04	1.296493e-76	0.000000e+00	1.304272e+00	0.000000e+00	0.000000e+00	0.000000e+00	0.000000e+00	0.000000e+00	0.000000e+00	1.347948e-01	1.083577e+03	1.016755e+05	3.000183e+02	6.079748e-02	2.074101e-05	1.622488e-04	
0.000000e+00	3.823529e-03	1.304275e+00	2.614972e+01	-1.008132e-01	-9.917586e+04	1.181230e-77	0.000000e+00	1.304275e+00	0.000000e+00	0.000000e+00	0.000000e+00	0.000000e+00	0.000000e+00	0.000000e+00	1.348274e-01	1.083743e+03	1.016757e+05	3.000183e+02	6.080807e-02	2.074100e-05	1.622636e-04	
0.000000e+00	3.901961e-03	1.304279e+00	2.615488e+01	-1.130240e-01	-9.917611e+04	1.072419e-78	0.000000e+00	1.304279e+00	0.000000e+00	0.000000e+00	0.000000e+00	0.000000e+00	0.000000e+00	0.000000e+00	1.348653e-01	1.083935e+03	1.016760e+05	3.000182e+02	6.082002e-02	2.074100e-05	1.622808e-04	
0.000000e+00	3.980392e-03	1.304283e+00	2.616067e+01	-1.259953e-01	-9.917639e+04	9.705854e-80	0.000000e+00	1.304283e+00	0.000000e+00	0.000000e+00	0.000000e+00	0.000000e+00	0.000000e+00	0.000000e+00	1.349091e-01	1.084157e+03	1.016763e+05	3.000181e+02	6.083345e-02	2.074099e-05	1.623009e-04	
0.000000e+00	4.058824e-03	1.304287e+00	2.616714e+01	-1.398161e-01	-9.917671e+04	8.774158e-81	0.000000e+00	1.304287e+00	0.000000e+00	0.000000e+00	0.000000e+00	0.000000e+00	0.000000e+00	0.000000e+00	1.349598e-01	1.084412e+03	1.016766e+05	3.000180e+02	6.084845e-02	2.074099e-05	1.623242e-04	
0.000000e+00	4.137255e-03	1.304292e+00	2.617434e+01	-1.545812e-01	-9.917705e+04	7.995032e-82	0.000000e+00	1.304292e+00	0.000000e+00	0.000000e+00	0.000000e+00	0.000000e+00	0.000000e+00	0.000000e+00	1.350183e-01	1.084707e+03	1.016770e+05	3.000179e+02	6.086515e-02	2.074098e-05	1.623511e-04	
0.000000e+00	4.215686e-03	1.304298e+00	2.618232e+01	-1.703927e-01	-9.917744e+04	7.623920e-83	0.000000e+00	1.304298e+00	0.000000e+00	0.000000e+00	0.000000e+00	0.000000e+00	0.000000e+00	0.000000e+00	1.350855e-01	1.085045e+03	1.016773e+05	3.000177e+02	6.088368e-02	2.074097e-05	1.623819e-04	
0.000000e+00	4.294118e-03	1.304304e+00	2.619114e+01	-1.873591e-01	-9.917786e+04	8.618288e-84	0.000000e+00	1.304304e+00	0.000000e+00	0.000000e+00	0.000000e+00	0.000000e+00	0.000000e+00	0.000000e+00	1.351622e-01	1.085434e+03	1.016778e+05	3.000176e+02	6.090418e-02	2.074097e-05	1.624166e-04	
0.000000e+00	4.372549e-03	1.304311e+00	2.620086e+01	-2.056015e-01	-9.917833e+04	1.405203e-84	0.000000e+00	1.304311e+00	0.000000e+00	0.000000e+00	0.000000e+00	0.000000e+00	0.000000e+00	0.000000e+00	1.352478e-01	1.085878e+03	1.016783e+05	3.000174e+02	6.092680e-02	2.074096e-05	1.624540e-04	
0.000000e+00	4.450980e-03	1.304319e+00	2.621151e+01	-2.252108e-01	-9.917884e+04	1.877372e-85	0.000000e+00	1.304319e+00	0.000000e+00	0.000000e+00	0.000000e+00	0.000000e+00	0.000000e+00	0.000000e+00	1.353407e-01	1.086399e+03	1.016788e+05	3.000172e+02	6.095162e-02	2.074095e-05	1.624885e-04	
0.000000e+00	4.529412e-03	1.304327e+00	2.622321e+01	-2.463295e-01	-9.917940e+04	0.000000e+00	0.000000e+00	1.304327e+00	0.000000e+00	0.000000e+00	0.000000e+00	0.000000e+00	0.000000e+00	0.000000e+00	1.354340e-01	1.087062e+03	1.016794e+05	3.000170e+02	6.097890e-02	2.074094e-05	1.548828e-04	
0.000000e+00	4.607843e-03	1.304336e+00	2.623611e+01	-2.691615e-01	-9.918002e+04	0.000000e+00	0.000000e+00	1.304336e+00	0.000000e+00	0.000000e+00	0.000000e+00	0.000000e+00	0.000000e+00	0.000000e+00	1.355303e-01	1.087885e+03	1.016800e+05	3.000168e+02	6.100901e-02	2.074092e-05	1.434434e-04	
0.000000e+00	4.686275e-03	1.304346e+00	2.625024e+01	-2.938409e-01	-9.918069e+04	0.000000e+00	0.000000e+00	1.304346e+00	0.000000e+00	0.000000e+00	0.000000e+00	0.000000e+00	0.000000e+00	0.000000e+00	1.356354e-01	1.088869e+03	1.016807e+05	3.000166e+02	6.104206e-02	2.074091e-05	1.327766e-04	
0.000000e+00	4.764706e-03	1.304356e+00	2.626574e+01	-3.205169e-01	-9.918142e+04	0.000000e+00	0.000000e+00	1.304356e+00	0.000000e+00	0.000000e+00	0.000000e+00	0.000000e+00	0.000000e+00	0.000000e+00	1.357552e-01	1.090071e+03	1.016814e+05	3.000163e+02	6.107835e-02	2.074090e-05	1.226660e-04	
0.000000e+00	4.843137e-03	1.304368e+00	2.628277e+01	-3.494214e-01	-9.918213e+04	0.000000e+00	0.000000e+00	1.304368e+00	0.000000e+00	0.000000e+00	0.000000e+00	0.000000e+00	0.000000e+00	0.000000e+00	1.359004e-01	1.091617e+03	1.016822e+05	3.000161e+02	6.111828e-02	2.074088e-05	1.134773e-04	
0.000000e+00	4.921569e-03	1.304379e+00	2.630151e+01	-3.803592e-01	-9.918255e+04	0.000000e+00	0.000000e+00	1.304379e+00	0.000000e+00	0.000000e+00	0.000000e+00	0.000000e+00	0.000000e+00	0.000000e+00	1.361334e-01	1.094258e+03	1.016831e+05	3.000161e+02	6.116231e-02	2.074089e-05	1.026459e-04	
0.000000e+00	5.052632e-03	1.304390e+00	2.633847e+01	-4.474588e-01	-9.918023e+04	0.000000e+00	0.000000e+00	1.304390e+00	0.000000e+00	0.000000e+00	0.000000e+00	0.000000e+00	0.000000e+00	0.000000e+00	1.365438e-01	1.099584e+03	1.016849e+05	3.000189e+02	6.124992e-02	2.074104e-05	8.339849e-05	
0.000000e+00	5.105263e-03	1.304398e+00	2.635469e+01	-4.732410e-01	-9.918048e+04	0.000000e+00	0.000000e+00	1.304398e+00	0.000000e+00	0.000000e+00	0.000000e+00	0.000000e+00	0.000000e+00	0.000000e+00	1.365126e-01	1.099479e+03	1.016856e+05	3.000190e+02	6.128826e-02	2.074104e-05	8.431970e-05	
0.000000e+00	5.157895e-03	1.304410e+00	2.637146e+01	-5.013545e-01	-9.918118e+04	0.000000e+00	0.000000e+00	1.304410e+00	0.000000e+00	0.000000e+00	0.000000e+00	0.000000e+00	0.000000e+00	0.000000e+00	1.366069e-01	1.101187e+03	1.016864e+05	3.000188e+02	6.132794e-02	2.074103e-05	7.946600e-05	
0.000000e+00	5.210526e-03	1.304422e+00	2.638902e+01	-5.309517e-01	-9.918201e+04	0.000000e+00	0.000000e+00	1.304422e+00	0.000000e+00	0.000000e+00	0.000000e+00	0.000000e+00	0.000000e+00	0.000000e+00	1.367270e-01	1.103415e+03	1.016872e+05	3.000185e+02	6.136957e-02	2.074101e-05	7.550139e-05	
0.000000e+00	5.263158e-03	1.304435e+00	2.640732e+01	-5.621547e-01	-9.918289e+04	0.000000e+00	0.000000e+00	1.304435e+00	0.000000e+00	0.000000e+00	0.000000e+00	0.000000e+00	0.000000e+00	0.000000e+00	1.368586e-01	1.106314e+03	1.016881e+05	3.000181e+02	6.141304e-02	2.074100e-05	7.181457e-05	
0.000000e+00	5.315789e-03	1.304448e+00	2.642630e+01	-5.950144e-01	-9.918383e+04	0.000000e+00	0.000000e+00	1.304448e+00	0.000000e+00	0.000000e+00	0.000000e+00	0.000000e+00	0.000000e+00	0.000000e+00	1.369916e-01	1.110573e+03	1.016891e+05	3.000178e+02	6.145823e-02	2.074098e-05	6.847391e-05	
0.000000e+00	5.368421e-03	1.304463e+00	2.644575e+01	-6.295745e-01	-9.918481e+04	0.000000e+00	0.000000e+00	1.304463e+00	0.000000e+00	0.000000e+00	0.000000e+00	0.000000e+00	0.000000e+00	0.000000e+00	1.371151e-01	1.118213e+03	1.016901e+05	3.000174e+02	6.150466e-02	2.074096e-05	6.560258e-05	
0.000000e+00	5.421053e-03	1.304478e+00	2.646517e+01	-6.658381e-01	-9.918584e+04	0.000000e+00	0.000000e+00	1.304478e+00	0.000000e+00	0.000000e+00	0.000000e+00	0.000000e+00	0.000000e+00	0.000000e+00	1.372107e-01	1.134784e+03	1.016911e+05	3.000171e+02	6.155118e-02	2.074094e-05	6.335737e-05	
0.000000e+00	5.473684e-03	1.304493e+00	2.648380e+01	-7.037260e-01	-9.918693e+04	0.000000e+00	0.000000e+00	1.304493e+00	0.000000e+00	0.000000e+00	0.000000e+00	0.000000e+00	0.000000e+00	0.000000e+00	1.372453e-01	1.175133e+03	1.016923e+05	3.000168e+02	6.159605e-02	2.074092e-05	6.178591e-05	
0.000000e+00	5.526316e-03	1.304510e+00	2.650088e+01	-7.431161e-01	-9.918808e+04	0.000000e+00	0.000000e+00	1.304510e+00	0.000000e+00	0.000000e+00	0.000000e+00	0.000000e+00	0.000000e+00	0.000000e+00	1.371507e-01	1.277754e+03	1.016934e+05	3.000165e+02	6.163749e-02	2.074090e-05	6.113926e-05	
0.000000e+00	5.578947e-03	1.304527e+00	2.651418e+01	-7.838768e-01	-9.918931e+04	0.000000e+00	0.000000e+00	1.304527e+00	0.000000e+00	0.000000e+00	0.000000e+00	0.000000e+00	0.000000e+00	0.000000e+00	1.367982e-01	1.539402e+03	1.016947e+05	3.000162e+02	6.167036e-02	2.074089e-05	6.281058e-05	
0.000000e+00	5.631579e-03	1.304545e+00	2.651808e+01	-8.249793e-01	-9.919065e+04	0.000000e+00	0.000000e+00	1.304545e+00	0.000000e+00	0.000000e+00	0.000000e+00	0.000000e+00	0.000000e+00	0.000000e+00	1.360190e-01	2.192642e+03	1.016960e+05	3.000161e+02	6.168150e-02	2.074088e-05	6.820812e-05	
0.000000e+00	5.684211e-03	1.304562e+00	2.650352e+01	-8.655269e-01	-9.919213e+04	0.000000e+00	0.000000e+00	1.304562e+00	0.000000e+00	0.000000e+00	0.000000e+00	0.000000e+00	0.000000e+00	0.000000e+00	1.344205e-01	3.903933e+03	1.016974e+05	3.000162e+02	6.164981e-02	2.074089e-05	4.491877e-05	
0.000000e+00	5.736842e-03	1.304578e+00	2.644519e+01	-9.034306e-01	-9.919378e+04	0.000000e+00	0.000000e+00	1.304578e+00	0.000000e+00	0.000000e+00	0.000000e+00	0.000000e+00	0.000000e+00	0.000000e+00	1.312695e-01	8.788168e+03	1.016989e+05	3.000171e+02	6.151640e-02	2.074094e-05	1.948657e-05	
0.000000e+00	5.789474e-03	1.304588e+00	2.628275e+01	-9.314818e-01	-9.919586e+04	0.000000e+00	0.000000e+00	1.304588e+00	0.000000e+00	0.000000e+00	0.000000e+00	0.000000e+00	0.000000e+00	0.000000e+00	1.247373e-01	2.297784e+04	1.017006e+05	3.000194e+02	6.114053e-02	2.074107e-05	7.082076e-06	
0.000000e+00	5.842105e-03	1.304586e+00	2.586707e+01	-9.373658e-01	-9.919902e+04	0.000000e+00	0.000000e+00	1.304586e+00	0.000000e+00	0.000000e+00	0.000000e+00	0.000000e+00	0.000000e+00	0.000000e+00	1.121847e-01	6.436262e+04	1.017023e+05	3.000252e+02	6.017482e-02	2.074138e-05	2.273904e-06	
0.000000e+00	5.894737e-03	1.304547e+00	2.472400e+01	-8.831032e-01	-9.920534e+04	0.000000e+00	0.000000e+00	1.304547e+00	0.000000e+00	0.000000e+00	0.000000e+00	0.000000e+00	0.000000e+00	0.000000e+00	9.235224e-02	1.942572e+05	1.017044e+05	3.000402e+02	5.751491e-02	2.074221e-05	6.201973e-07	
0.000000e+00	5.947368e-03	1.304377e+00	2.082701e+01	-7.278675e-01	-9.922175e+04	0.000000e+00	0.000000e+00	1.304377e+00	0.000000e+00	0.000000e+00	0.000000e+00	0.000000e+00	0.000000e+00	0.000000e+00	6.691280e-02	6.967838e+05	1.017064e+05	3.000854e+02	4.845084e-02	2.074470e-05	1.252605e-07	
1.262626e-03	6.000000e-03	1.304089e+00	0.000000e+00	0.000000e+00	-9.940451e+04	2.377358e-66	0.000000e+00	1.304089e+00	0.000000e+00	0.000000e+00	0.000000e+00	0.000000e+00	0.000000e+00	0.000000e+00	1.000000e-10	4.593932e+06	1.016690e+05	3.000410e+02	0.000000e+00	2.074225e-05	2.838721e-17	
2.525253e-03	6.000000e-03	1.304223e+00	0.000000e+00	0.000000e+00	-9.943870e+04	6.322834e-64	0.000000e+00	1.304223e+00	0.000000e+00	0.000000e+00	0.000000e+00	0.000000e+00	0.000000e+00	0.000000e+00	1.000000e-10	4.592116e+06	1.016699e+05	3.000130e+02	0.000000e+00	2.074072e-05	2.840134e-17	
3.787879e-03	6.000000e-03	1.304260e+00	0.000000e+00	0.000000e+00	-9.945278e+04	2.276027e-61	0.000000e+00	1.304260e+00	0.000000e+00	0.000000e+00	0.000000e+00	0.000000e+00	0.000000e+00	0.000000e+00	1.000000e-10	4.589977e+06	1.016684e+05	3.000000e+02	0.000000e+00	2.074000e-05	2.841540e-17	
5.050505e-03	6.000000e-03	1.304271e+00	0.000000e+00	0.000000e+00	-9.946040e+04	6.932619e-59	0.000000e+00	1.304271e+00	0.000000e+00	0.000000e+00	0.000000e+00	0.000000e+00	0.000000e+00	0.000000e+00	1.000000e-10	4.587903e+06	1.016665e+05	2.999920e+02	0.000000e+00	2.073956e-05	2.842848e-17	
6.313131e-03	6.000000e-03	1.304272e+00	0.000000e+00	0.000000e+00	-9.946472e+04	1.756523e-56	0.000000e+00	1.304272e+00	0.000000e+00	0.000000e+00	0.000000e+00	0.000000e+00	0.000000e+00	0.000000e+00	1.000000e-10	4.586162e+06	1.016650e+05	2.999871e+02	0.000000e+00	2.073929e-05	2.843929e-17	
7.575758e-03	6.000000e-03	1.304270e+00	0.000000e+00	0.000000e+00	-9.946726e+04	3.664657e-54	0.000000e+00	1.304270e+00	0.000000e+00	0.000000e+00	0.000000e+00	0.000000e+00	0.000000e+00	0.000000e+00	1.000000e-10	4.584898e+06	1.016637e+05	2.999840e+02	0.000000e+00	2.073912e-05	2.844708e-17	