TITLE = "SU2 Simulation"
VARIABLES = "Iteration","CLift","CDrag","CSideForce","CMx","CMy","CMz","CFx","CFy","CFz","CL/CD","HeatFlux_Total","HeatFlux_Maximum","Res_Flow[0]","Res_Flow[1]","Res_Flow[2]","Res_Flow[3]","Res_Flow[4]","Res_Turb[0]","Res_Turb[1]","Linear_Solver_Iterations","CFL_Number","Time(min)"
ZONE T= "Convergence history"
           0, 3.0000000000, 0.1000000000, 0.0481426167
           1, 3.0000000000, 0.1000000000, 0.0845216667
           2, 3.0000000000, 0.1000000000, 0.1173487500
           3, 3.0000000000, 0.1000000000, 0.1528859167
           4, 3.0000000000, 0.1000000000, 0.1893693833
           5, 3.0000000000, 0.1000000000, 0.2265416833
           6, 3.0000000000, 0.1000000000, 0.2689132333
           7, 3.0000000000, 0.1000000000, 0.3042808833
           8, 3.0000000000, 0.1000000000, 0.3373382167
           9, 5.0000000000, 0.1000000000, 0.3762459167
          10, 5.0000000000, 0.1000000000, 0.4140265167
          11, 5.0000000000, 0.1000000000, 0.4499679667
          12, 5.0000000000, 0.1000000000, 0.4886403667
          13, 5.0000000000, 0.1000000000, 0.5254745500
          14, 5.0000000000, 0.1000000000, 0.5684739333
          15, 5.0000000000, 0.1000000000, 0.6067626667
          16, 5.0000000000, 0.1000000000, 0.6493606333
          17, 5.0000000000, 0.1000000000, 0.6856440000
          18, 5.0000000000, 0.1000000000, 0.7229108667
          19, 5.0000000000, 0.1000000000, 0.7657447833
          20, 5.0000000000, 0.1000000000, 0.8048174000
          21, 5.0000000000, 0.1000000000, 0.8407170333
          22, 5.0000000000, 0.1000000000, 0.8792236833
          23, 5.0000000000, 0.1000000000, 0.9189540167
          24, 5.0000000000, 0.1000000000, 0.9550077333
          25, 5.0000000000, 0.1000000000, 0.9930596667
          26, 5.0000000000, 0.1000000000, 1.0299306667
          27, 5.0000000000, 0.1000000000, 1.0699300667
          28, 5.0000000000, 0.1000000000, 1.1055562833
          29, 5.0000000000, 0.1000000000, 1.1437637333
          30, 5.0000000000, 0.1000000000, 1.1828915500
          31, 5.0000000000, 0.1000000000, 1.2217649167
          32, 5.0000000000, 0.1000000000, 1.2618021000
          33, 5.0000000000, 0.1000000000, 1.3005493333
          34, 5.0000000000, 0.1000000000, 1.3364387167
          35, 5.0000000000, 0.1000000000, 1.3784551833
          36, 5.0000000000, 0.1000000000, 1.4160436000
          37, 5.0000000000, 0.1000000000, 1.4568752833
          38, 5.0000000000, 0.1000000000, 1.4964238167
          39, 5.0000000000, 0.1000000000, 1.5350704833
          40, 5.0000000000, 0.1000000000, 1.5789942000
          41, 5.0000000000, 0.1000000000, 1.6177093333
          42, 5.0000000000, 0.1000000000, 1.6554252000
          43, 5.0000000000, 0.1000000000, 1.6975652667
          44, 5.0000000000, 0.1000000000, 1.7368992000
          45, 5.0000000000, 0.1000000000, 1.7760048333
          46, 5.0000000000, 0.1000000000, 1.8170925500
          47, 5.0000000000, 0.1000000000, 1.8579104667
          48, 5.0000000000, 0.1000000000, 1.9029573333
          49, 5.0000000000, 0.1000000000, 1.9397768833
          50, 5.0000000000, 0.1000000000, 1.9839480000
          51, 5.0000000000, 0.1000000000, 2.0330831667
          52, 5.0000000000, 0.1000000000, 2.0900520833
          53, 5.0000000000, 0.1000000000, 2.1278203667
          54, 5.0000000000, 0.1000000000, 2.1671043667
          55, 5.0000000000, 0.1000000000, 2.2053472833
          56, 5.0000000000, 0.1000000000, 2.2491596333
          57, 5.0000000000, 0.1000000000, 2.2864426167
          58, 5.0000000000, 0.1000000000, 2.3247605833
          59, 5.0000000000, 0.1000000000, 2.3626826000
          60, 5.0000000000, 0.1000000000, 2.4047669167
          61, 5.0000000000, 0.1000000000, 2.4429269333
          62, 5.0000000000, 0.1000000000, 2.4839673833
          63, 5.0000000000, 0.1000000000, 2.5251597000
          64, 5.0000000000, 0.1000000000, 2.5674225500
          65, 5.0000000000, 0.1000000000, 2.6070920000
          66, 5.0000000000, 0.1000000000, 2.6479801667
          67, 5.0000000000, 0.1000000000, 2.6867406833
          68, 5.0000000000, 0.1000000000, 2.7264278833
          69, 5.0000000000, 0.1000000000, 2.7659987000
          70, 5.0000000000, 0.1000000000, 2.7984272000
          71, 5.0000000000, 0.1000000000, 2.8353007667
          72, 5.0000000000, 0.1000000000, 2.8712684000
          73, 5.0000000000, 0.1000000000, 2.9065553500
          74, 5.0000000000, 0.1000000000, 2.9433955333
          75, 5.0000000000, 0.1000000000, 2.9819911833
          76, 5.0000000000, 0.1000000000, 3.0238318833
          77, 5.0000000000, 0.1000000000, 3.0641622000
          78, 5.0000000000, 0.1000000000, 3.0984315000
          79, 5.0000000000, 0.1000000000, 3.1372124833
          80, 5.0000000000, 0.1000000000, 3.1786251500
          81, 5.0000000000, 0.1000000000, 3.2229365667
          82, 5.0000000000, 0.1000000000, 3.2592961333
          83, 5.0000000000, 0.1000000000, 3.2941000167
          84, 5.0000000000, 0.1000000000, 3.3318356167
          85, 5.0000000000, 0.1000000000, 3.3725817167
          86, 5.0000000000, 0.1000000000, 3.4143156333
          87, 5.0000000000, 0.1000000000, 3.4529920000
          88, 5.0000000000, 0.1000000000, 3.4956363333
          89, 5.0000000000, 0.1000000000, 3.5367541833
          90, 5.0000000000, 0.1000000000, 3.5749023667
          91, 5.0000000000, 0.1000000000, 3.6113295833
          92, 5.0000000000, 0.1000000000, 3.6477682167
          93, 5.0000000000, 0.1000000000, 3.6835251333
          94, 5.0000000000, 0.1000000000, 3.7229742500
          95, 5.0000000000, 0.1000000000, 3.7640051333
          96, 5.0000000000, 0.1000000000, 3.8097253167
          97, 5.0000000000, 0.1000000000, 3.8454062500
          98, 5.0000000000, 0.1000000000, 3.8846462833
          99, 5.0000000000, 0.1000000000, 3.9207963500
         100, 5.0000000000, 0.1000000000, 3.9719124833
         101, 5.0000000000, 0.1000000000, 4.0451329000
         102, 5.0000000000, 0.1000000000, 4.0857095000
         103, 5.0000000000, 0.1000000000, 4.1263500167
         104, 5.0000000000, 0.1000000000, 4.1623216500
         105, 5.0000000000, 0.1000000000, 4.2010026000
         106, 5.0000000000, 0.1000000000, 4.2388851333
         107, 5.0000000000, 0.1000000000, 4.2779118500
         108, 5.0000000000, 0.1000000000, 4.3177546500
         109, 5.0000000000, 0.1000000000, 4.3575559500
         110, 5.0000000000, 0.1000000000, 4.3956204000
         111, 5.0000000000, 0.1000000000, 4.4358466333
         112, 5.0000000000, 0.1000000000, 4.4740276500
         113, 5.0000000000, 0.1000000000, 4.5095769500
         114, 5.0000000000, 0.1000000000, 4.5521826833
         115, 5.0000000000, 0.1000000000, 4.5899020833
         116, 5.0000000000, 0.1000000000, 4.6278529667
         117, 5.0000000000, 0.1000000000, 4.6665318167
         118, 5.0000000000, 0.1000000000, 4.7032779500
         119, 5.0000000000, 0.1000000000, 4.7422509833
         120, 5.0000000000, 0.1000000000, 4.7782756000
         121, 5.0000000000, 0.1000000000, 4.8175352500
         122, 5.0000000000, 0.1000000000, 4.8585686333
         123, 5.0000000000, 0.1000000000, 4.8978338333
         124, 5.0000000000, 0.1000000000, 4.9336665000
         125, 5.0000000000, 0.1000000000, 4.9750468333
         126, 5.0000000000, 0.1000000000, 5.0129142833
         127, 5.0000000000, 0.1000000000, 5.0535129000
         128, 5.0000000000, 0.1000000000, 5.0961745333
         129, 5.0000000000, 0.1000000000, 5.1505861000
         130, 5.0000000000, 0.1000000000, 5.2029846167
